 vasp.4.6.31 08Feb07 complex 
 executed on   ST-HPC (115815509) date 2011.04.05  07:38:55
 running on   16 nodes
 distr:  one band on    1 nodes,   16 groups


--------------------------------------------------------------------------------------------------------


 INCAR:
 POTCAR:   PAW_PBE Rh 06Sep2000                   
 POTCAR:   PAW_PBE C 08Apr2002                    
 POTCAR:   PAW_PBE O 08Apr2002                    
 POTCAR:   PAW_PBE Rh 06Sep2000                   
   VRHFIN =Rh: s1 d8                                                            
   LEXCH  = PE                                                                  
   EATOM  =   616.5493 eV,   45.3151 Ry                                         
                                                                                
   TITEL  = PAW_PBE Rh 06Sep2000                                                
   LULTRA =        F    use ultrasoft PP ?                                      
   IUNSCR =        1    unscreen: 0-lin 1-nonlin 2-no                           
   RPACOR =    2.170    partial core radius                                     
   POMASS =  102.906; ZVAL   =    9.000    mass and valenz                      
   RCORE  =    2.500    outmost cutoff radius                                   
   RWIGS  =    2.650; RWIGS  =    1.402    wigner-seitz radius (au A)           
   ENMAX  =  229.000; ENMIN  =  171.750 eV                                      
   RCLOC  =    1.827    cutoff for local pot                                    
   LCOR   =        T    correct aug charges                                     
   LPAW   =        T    paw PP                                                  
   EAUG   =  374.513                                                            
   DEXC   =    -.066                                                            
   RMAX   =    3.047    core radius for proj-oper                               
   RAUG   =    1.300    factor for augmentation sphere                          
   RDEP   =    2.536    radius for radial grids                                 
   QCUT   =   -4.103; QGAM   =    8.205    optimization parameters              
                                                                                
   Description                                                                  
     l     E      TYP  RCUT    TYP  RCUT                                        
     2   .000     23  2.500                                                     
     2   .000     23  2.500                                                     
     0   .000     23  2.400                                                     
     0   .000     23  2.400                                                     
     1  -.200     23  2.500                                                     
     1   .000     23  2.500                                                     
     3   .000      7   .000                                                     
  local pseudopotential read in
  partial core-charges read in
  atomic valenz-charges read in
  non local Contribution for L=           2  read in
    real space projection operators read in
  non local Contribution for L=           2  read in
    real space projection operators read in
  non local Contribution for L=           0  read in
    real space projection operators read in
  non local Contribution for L=           0  read in
    real space projection operators read in
  non local Contribution for L=           1  read in
    real space projection operators read in
  non local Contribution for L=           1  read in
    real space projection operators read in
    PAW grid and wavefunctions read in

   number of l-projection  operators is LMAX  =           6
   number of lm-projection operators is LMMAX =          18

 POTCAR:   PAW_PBE C 08Apr2002                    
   VRHFIN =C: s2p2                                                              
   LEXCH  = PE                                                                  
   EATOM  =   147.1560 eV,   10.8157 Ry                                         
                                                                                
   TITEL  = PAW_PBE C 08Apr2002                                                 
   LULTRA =        F    use ultrasoft PP ?                                      
   IUNSCR =        0    unscreen: 0-lin 1-nonlin 2-no                           
   RPACOR =     .000    partial core radius                                     
   POMASS =   12.011; ZVAL   =    4.000    mass and valenz                      
   RCORE  =    1.500    outmost cutoff radius                                   
   RWIGS  =    1.630; RWIGS  =     .863    wigner-seitz radius (au A)           
   ENMAX  =  400.000; ENMIN  =  300.000 eV                                      
   ICORE  =        2    local potential                                         
   LCOR   =        T    correct aug charges                                     
   LPAW   =        T    paw PP                                                  
   EAUG   =  644.873                                                            
   DEXC   =     .000                                                            
   RMAX   =    2.266    core radius for proj-oper                               
   RAUG   =    1.300    factor for augmentation sphere                          
   RDEP   =    1.501    radius for radial grids                                 
   RDEPT  =    1.300    core radius for aug-charge                              
   QCUT   =   -5.516; QGAM   =   11.032    optimization parameters              
                                                                                
   Description                                                                  
     l     E      TYP  RCUT    TYP  RCUT                                        
     0   .000     23  1.200                                                     
     0   .000     23  1.200                                                     
     1   .000     23  1.500                                                     
     1  2.500     23  1.500                                                     
     2   .000      7  1.500                                                     
  local pseudopotential read in
  atomic valenz-charges read in
  non local Contribution for L=           0  read in
    real space projection operators read in
  non local Contribution for L=           0  read in
    real space projection operators read in
  non local Contribution for L=           1  read in
    real space projection operators read in
  non local Contribution for L=           1  read in
    real space projection operators read in
    PAW grid and wavefunctions read in

   number of l-projection  operators is LMAX  =           4
   number of lm-projection operators is LMMAX =           8

 POTCAR:   PAW_PBE O 08Apr2002                    
   VRHFIN =O: s2p4                                                              
   LEXCH  = PE                                                                  
   EATOM  =   432.3788 eV,   31.7789 Ry                                         
                                                                                
   TITEL  = PAW_PBE O 08Apr2002                                                 
   LULTRA =        F    use ultrasoft PP ?                                      
   IUNSCR =        0    unscreen: 0-lin 1-nonlin 2-no                           
   RPACOR =     .000    partial core radius                                     
   POMASS =   16.000; ZVAL   =    6.000    mass and valenz                      
   RCORE  =    1.520    outmost cutoff radius                                   
   RWIGS  =    1.550; RWIGS  =     .820    wigner-seitz radius (au A)           
   ENMAX  =  400.000; ENMIN  =  300.000 eV                                      
   ICORE  =        2    local potential                                         
   LCOR   =        T    correct aug charges                                     
   LPAW   =        T    paw PP                                                  
   EAUG   =  605.392                                                            
   DEXC   =     .000                                                            
   RMAX   =    2.264    core radius for proj-oper                               
   RAUG   =    1.300    factor for augmentation sphere                          
   RDEP   =    1.550    radius for radial grids                                 
   QCUT   =   -5.520; QGAM   =   11.041    optimization parameters              
                                                                                
   Description                                                                  
     l     E      TYP  RCUT    TYP  RCUT                                        
     0   .000     23  1.200                                                     
     0  -.700     23  1.200                                                     
     1   .000     23  1.520                                                     
     1   .600     23  1.520                                                     
     2   .000      7  1.500                                                     
  local pseudopotential read in
  atomic valenz-charges read in
  non local Contribution for L=           0  read in
    real space projection operators read in
  non local Contribution for L=           0  read in
    real space projection operators read in
  non local Contribution for L=           1  read in
    real space projection operators read in
  non local Contribution for L=           1  read in
    real space projection operators read in
    PAW grid and wavefunctions read in

   number of l-projection  operators is LMAX  =           4
   number of lm-projection operators is LMMAX =           8


 ----------------------------------------------------------------------------- 
|                                                                             |
|  ADVICE TO THIS USER RUNNING 'VASP/VAMP'   (HEAR YOUR MASTER'S VOICE ...):  |
|                                                                             |
|      You have a (more or less) 'large supercell' and for larger cells       |
|      it might be more efficient to use real space projection operators      |
|      So try LREAL= Auto  in the INCAR   file.                               |
|      Mind: If you want to do an extremely accurate calculations keep the    |
|      reciprocal projection scheme          (i.e. LREAL=.FALSE.)             |
|                                                                             |
 ----------------------------------------------------------------------------- 

 PAW_PBE Rh 06Sep2000                   :
 energy of atom  1       EATOM= -616.5493
 kinetic energy error for atom=    0.0030 (will be added to EATOM!!)
 PAW_PBE C 08Apr2002                    :
 energy of atom  2       EATOM= -147.1560
 kinetic energy error for atom=    0.0076 (will be added to EATOM!!)
 PAW_PBE O 08Apr2002                    :
 energy of atom  3       EATOM= -432.3788
 kinetic energy error for atom=    0.0224 (will be added to EATOM!!)

 EXHCAR: internal setup
 exchange correlation table for  LEXCH =        8
   RHO(1)=    0.500       N(1)  =     2000
   RHO(2)=  100.500       N(2)  =     4000

 POSCAR:  {VASPAtoms:66Rh}                       
  positions in direct lattice
  velocities in cartesian coordinates

 VTST: version 2.03d, (02/18/09)

 CHAIN: initializing optimizer
 
 OPT: Using VASP Conjugate-Gradient optimizer
 CHAIN: Read ICHAIN            0



--------------------------------------------------------------------------------------------------------


 ion  position               nearest neighbor table
   1  0.235  0.103  0.396-  19 2.64  53 2.68   5 2.69  25 2.69  49 2.70   3 2.70  59 2.71  41 2.71
                            55 2.72  37 2.72
   2  0.734  0.103  0.396-  20 2.66   4 2.66   6 2.67  54 2.67  50 2.67  26 2.68  42 2.72  38 2.72
                            56 2.73  60 2.75
   3  0.235  0.438  0.395-  51 2.64  21 2.65  49 2.68   5 2.68   1 2.70  27 2.71  39 2.71  37 2.72
                            55 2.73  57 2.74
   4  0.736  0.434  0.394-  68 2.06   2 2.66  22 2.69  50 2.69  38 2.70  52 2.70  28 2.71   6 2.74
                            40 2.74  56 2.77  58 2.79
   5  0.235  0.770  0.392-  23 2.62  51 2.63  53 2.65   3 2.68   1 2.69  39 2.74  41 2.74  29 2.75
                            59 2.76  57 2.79
   6  0.736  0.773  0.394-  68 2.06   2 2.67  24 2.68  54 2.69  42 2.69  52 2.70  30 2.71  40 2.73
                             4 2.74  60 2.79  58 2.79
   7  0.402  0.105  0.534-   9 2.68  55 2.68  37 2.68  41 2.69  11 2.70  59 2.70  65 2.70  31 2.71
                            44 2.71  48 2.72  26 2.72  61 2.83
   8  0.903  0.103  0.534-  56 2.66  60 2.66  38 2.68  66 2.68  42 2.69  10 2.69  12 2.69  43 2.69
                            62 2.70  47 2.71  25 2.71  32 2.75
   9  0.402  0.436  0.534-  37 2.67  55 2.67   7 2.68  39 2.68  11 2.70  57 2.70  63 2.70  44 2.71
                            33 2.71  46 2.72  28 2.72  61 2.84
  10  0.902  0.437  0.533-  38 2.66  56 2.66  58 2.67  40 2.68   8 2.69  12 2.69  64 2.70  27 2.70
                            43 2.70  62 2.71  34 2.71  45 2.72
  11  0.402  0.770  0.533-  41 2.66  39 2.66  59 2.67  57 2.67  35 2.68  63 2.70   9 2.70   7 2.70
                            65 2.70  30 2.72  48 2.72  46 2.72
  12  0.902  0.770  0.534-  60 2.67  58 2.67  42 2.67  40 2.68   8 2.69  36 2.69  10 2.69  66 2.70
                            64 2.71  29 2.71  45 2.72  47 2.72
  13  0.067  0.099  0.670-  69 2.45  66 2.62  17 2.65  47 2.67  31 2.68  62 2.69  43 2.70  15 2.76

  14  0.568  0.103  0.668-  32 2.62  65 2.63  61 2.63  48 2.65  44 2.65  18 2.69  16 2.69
  15  0.067  0.441  0.670-  69 2.45  64 2.60  17 2.66  62 2.68  45 2.69  33 2.69  43 2.71  13 2.76

  16  0.569  0.437  0.668-  63 2.63  61 2.64  44 2.65  46 2.65  34 2.65  18 2.69  14 2.69
  17  0.069  0.770  0.667-  64 2.64  47 2.64  45 2.64  66 2.65  13 2.65  15 2.66  35 2.66
  18  0.571  0.770  0.668-  63 2.64  36 2.64  65 2.64  46 2.65  48 2.65  16 2.69  14 2.69
  19  0.403  0.104  0.332-  50 2.64   1 2.64  54 2.64  37 2.65  41 2.65  21 2.69  23 2.69
  20  0.904  0.104  0.333-  49 2.64  42 2.64  38 2.64  53 2.65  24 2.65  22 2.66   2 2.66
  21  0.405  0.437  0.332-  50 2.64  52 2.64  39 2.65  37 2.65   3 2.65  19 2.69  23 2.69
  22  0.907  0.433  0.330-  70 2.45  49 2.60  20 2.66  51 2.68  38 2.69   4 2.69  40 2.71  24 2.76

  23  0.405  0.771  0.332-   5 2.62  54 2.63  52 2.63  41 2.65  39 2.65  19 2.69  21 2.69
  24  0.906  0.775  0.330-  70 2.46  53 2.62  20 2.65  42 2.67   6 2.68  51 2.69  40 2.70  22 2.76

  25  0.072  0.103  0.466-  55 2.67  59 2.67  47 2.67  43 2.68  29 2.69   1 2.69  27 2.69  53 2.70
                            49 2.71   8 2.71  38 2.72  42 2.72
  26  0.572  0.104  0.467-  48 2.66  44 2.66  60 2.67  56 2.67   2 2.68  50 2.69  28 2.70  30 2.70
                            54 2.70   7 2.72  41 2.72  37 2.72
  27  0.071  0.437  0.467-  45 2.66  57 2.66  55 2.67  43 2.68  29 2.69  25 2.69  49 2.70  10 2.70
                            40 2.70  51 2.70   3 2.71  38 2.72
  28  0.572  0.438  0.466-  46 2.67  58 2.67  30 2.68  44 2.68  26 2.70  56 2.70  50 2.70  39 2.71
                             4 2.71  37 2.72   9 2.72  52 2.84
  29  0.071  0.770  0.466-  57 2.66  59 2.66  45 2.68  53 2.68  47 2.69  27 2.69  25 2.69  40 2.69
                            51 2.70  42 2.71  12 2.71   5 2.75
  30  0.572  0.769  0.466-  28 2.68  58 2.68  46 2.68  48 2.69  26 2.70  60 2.70  54 2.70   6 2.71
                            39 2.71  41 2.72  11 2.72  52 2.83
  31  0.237  0.100  0.606-  67 2.06  35 2.66  13 2.68  65 2.69  47 2.69  61 2.70   7 2.71  43 2.73
                            33 2.74  59 2.79  55 2.79
  32  0.738  0.104  0.608-  14 2.62  62 2.63  66 2.65  34 2.68  36 2.69  44 2.74  48 2.74   8 2.75
                            60 2.77  56 2.79
  33  0.238  0.440  0.606-  67 2.06  35 2.66  15 2.69  63 2.69  45 2.70  61 2.70   9 2.71  31 2.74
                            43 2.74  57 2.77  55 2.79
  34  0.738  0.436  0.605-  62 2.64  16 2.65  64 2.68  32 2.68  36 2.70  10 2.71  44 2.71  46 2.72
                            58 2.73  56 2.74
  35  0.239  0.770  0.604-  17 2.66  33 2.66  31 2.66  65 2.67  63 2.67  11 2.68  47 2.72  45 2.72
                            57 2.73  59 2.75
  36  0.738  0.771  0.604-  18 2.64  66 2.68  32 2.69  12 2.69  64 2.70  34 2.70  60 2.71  48 2.71
                            58 2.72  46 2.72
  37  0.402  0.271  0.432-  21 2.65  19 2.65  55 2.66   9 2.67  50 2.67   7 2.68  39 2.68  41 2.70
                            28 2.72   1 2.72   3 2.72  26 2.72
  38  0.902  0.271  0.433-  20 2.64  10 2.66  56 2.66   8 2.68  22 2.69  49 2.69  40 2.69   4 2.70
                            42 2.70  27 2.72  25 2.72   2 2.72
  39  0.402  0.603  0.432-  21 2.65  23 2.65  11 2.66  57 2.68   9 2.68  37 2.68  41 2.69  30 2.71
                            28 2.71   3 2.71   5 2.74  52 2.83
  40  0.904  0.604  0.432-  10 2.68  12 2.68  42 2.68  38 2.69  29 2.69  51 2.70  58 2.70  24 2.70
                            27 2.70  22 2.71   6 2.73   4 2.74
  41  0.402  0.937  0.432-  23 2.65  59 2.65  19 2.65  11 2.66  54 2.68   7 2.69  39 2.69  37 2.70
                             1 2.71  30 2.72  26 2.72   5 2.74
  42  0.902  0.936  0.432-  20 2.64  24 2.67  12 2.67  40 2.68   8 2.69  60 2.69  53 2.69   6 2.69
                            38 2.70  29 2.71   2 2.72  25 2.72
  43  0.070  0.270  0.568-  27 2.68  25 2.68  47 2.68  45 2.69   8 2.69  62 2.70  55 2.70  13 2.70
                            10 2.70  15 2.71  31 2.73  33 2.74
  44  0.571  0.271  0.568-  16 2.65  14 2.65  26 2.66  56 2.68  28 2.68  46 2.68  48 2.69   9 2.71
                             7 2.71  34 2.71  32 2.74  61 2.83
  45  0.071  0.603  0.567-  17 2.64  27 2.66  57 2.66  29 2.68  15 2.69  64 2.69  43 2.69  33 2.70
                            47 2.70  10 2.72  12 2.72  35 2.72
  46  0.571  0.603  0.568-  16 2.65  18 2.65  58 2.66  28 2.67  63 2.67  30 2.68  44 2.68  48 2.70
                             9 2.72  36 2.72  34 2.72  11 2.72
  47  0.071  0.938  0.568-  17 2.64  13 2.67  25 2.67  43 2.68  29 2.69  59 2.69  66 2.69  31 2.69
                            45 2.70   8 2.71  35 2.72  12 2.72
  48  0.571  0.937  0.568-  14 2.65  60 2.65  18 2.65  26 2.66  65 2.68  30 2.69  44 2.69  46 2.70
                            36 2.71   7 2.72  11 2.72  32 2.74
  49  0.067  0.272  0.364-  22 2.60  20 2.64  51 2.67   3 2.68  38 2.69   1 2.70  27 2.70  25 2.71
                            53 2.71
  50  0.567  0.267  0.364-  21 2.64  19 2.64  54 2.64   2 2.67  37 2.67   4 2.69  26 2.69  28 2.70
                            52 2.72
  51  0.071  0.603  0.363-   5 2.63   3 2.64  49 2.67  22 2.68  24 2.69  53 2.69  29 2.70  40 2.70
                            27 2.70
  52  0.572  0.604  0.356-  68 2.03  23 2.63  21 2.64   4 2.70   6 2.70  54 2.72  50 2.72  30 2.83
                            39 2.83  28 2.84
  53  0.068  0.936  0.364-  24 2.62  20 2.65   5 2.65   1 2.68  29 2.68  42 2.69  51 2.69  25 2.70
                            49 2.71
  54  0.567  0.940  0.363-  23 2.63  19 2.64  50 2.64   2 2.67  41 2.68   6 2.69  26 2.70  30 2.70
                            52 2.72
  55  0.237  0.271  0.499-  37 2.66  27 2.67  25 2.67   9 2.67   7 2.68  43 2.70  57 2.71  59 2.71
                             1 2.72   3 2.73  31 2.79  33 2.79
  56  0.738  0.268  0.501-  60 2.65   8 2.66  38 2.66  10 2.66  26 2.67  44 2.68  28 2.70  58 2.71
                             2 2.73  34 2.74   4 2.77  32 2.79
  57  0.236  0.606  0.499-  59 2.65  29 2.66  45 2.66  27 2.66  11 2.67  39 2.68   9 2.70  55 2.71
                            35 2.73   3 2.74  33 2.77   5 2.79
  58  0.737  0.603  0.501-  46 2.66  10 2.67  12 2.67  28 2.67  30 2.68  40 2.70  56 2.71  60 2.71
                            36 2.72  34 2.73   6 2.79   4 2.79
  59  0.236  0.934  0.498-  57 2.65  41 2.65  29 2.66  25 2.67  11 2.67  47 2.69   7 2.70   1 2.71
                            55 2.71  35 2.75   5 2.76  31 2.79
  60  0.737  0.939  0.502-  56 2.65  48 2.65   8 2.66  12 2.67  26 2.67  42 2.69  30 2.70  36 2.71
                            58 2.71   2 2.75  32 2.77   6 2.79
  61  0.401  0.270  0.644-  67 2.03  14 2.63  16 2.64  33 2.70  31 2.70  65 2.72  63 2.72   7 2.83
                            44 2.83   9 2.84
  62  0.903  0.271  0.637-  32 2.63  34 2.64  64 2.67  15 2.68  13 2.69  66 2.69   8 2.70  43 2.70
                            10 2.71
  63  0.407  0.606  0.636-  16 2.63  18 2.64  65 2.64  35 2.67  46 2.67  33 2.69  11 2.70   9 2.70
                            61 2.72
  64  0.906  0.602  0.636-  15 2.60  17 2.64  62 2.67  34 2.68  45 2.69  36 2.70  10 2.70  12 2.71
                            66 2.71
  65  0.406  0.934  0.637-  14 2.63  18 2.64  63 2.64  35 2.67  48 2.68  31 2.69  11 2.70   7 2.70
                            61 2.72
  66  0.905  0.937  0.636-  13 2.62  17 2.65  32 2.65  36 2.68   8 2.68  47 2.69  62 2.69  12 2.70
                            64 2.71
  67  0.256  0.270  0.673-  69 1.26  61 2.03  33 2.06  31 2.06
  68  0.718  0.603  0.327-  70 1.26  52 2.03   4 2.06   6 2.06
  69  0.198  0.270  0.717-  67 1.26  15 2.45  13 2.45
  70  0.775  0.603  0.283-  68 1.26  22 2.45  24 2.46

  LATTYP: Found a simple orthorhombic cell.
 ALAT       =     8.0704000000
 B/A-ratio  =     1.6329797800
 C/A-ratio  =     2.8208886800
  
  Lattice vectors:
  
 A1 = (   0.0000000000,  -8.0704000000,   0.0000000000)
 A2 = ( -13.1788000165,   0.0000000000,   0.0000000000)
 A3 = (   0.0000000000,   0.0000000000, -22.7657000031)
 Subroutine PRICEL returns:
 Original cell was already a primitive cell.
 

Analysis of symmetry for initial positions (statically):

 Routine SETGRP: Setting up the symmetry group for a 
 simple orthorhombic supercell.


 Subroutine GETGRP returns: Found  1 space group operations
 (whereof  1 operations were pure point group operations)
 out of a pool of  8 trial point group operations.


The static configuration has the point symmetry C_1 .

Analysis of symmetry for dynamics (positions and initial velocities):

 Subroutine DYNSYM returns: Found  1 space group operations
 (whereof  1 operations were pure point group operations)
 out of a pool of  1 trial space group operations
 (whereof  1 operations were pure point group operations)
 and found also     1 'primitive' translations


The dynamic configuration has the point symmetry C_1 .


 KPOINTS: Automatic Mesh                          

Automatic generation of k-mesh.
 
 Subroutine IBZKPT returns following result:
 ===========================================
 
 Found      5 irreducible k-points:
 
 Following reciprocal coordinates:
            Coordinates               Weight
  0.000000  0.000000  0.000000      1.000000
  0.333333  0.000000  0.000000      2.000000
  0.000000  0.333333  0.000000      2.000000
  0.333333  0.333333  0.000000      2.000000
 -0.333333  0.333333  0.000000      2.000000
 
 Following cartesian coordinates:
            Coordinates               Weight
  0.000000  0.000000  0.000000      1.000000
  0.204126  0.000000  0.000000      2.000000
  0.000000  0.333333  0.000000      2.000000
  0.204126  0.333333  0.000000      2.000000
 -0.204126  0.333333  0.000000      2.000000
 


--------------------------------------------------------------------------------------------------------




 Dimension of arrays:
   k-Points           NKPTS =      5   number of bands    NBANDS=    368
   number of dos      NEDOS =    301   number of ions     NIONS =     70
   non local maximal  LDIM  =      6   non local SUM 2l+1 LMDIM =     18
   total plane-waves  NPLWV = 435456
   max r-space proj   IRMAX =      1   max aug-charges    IRDMAX=   8480
   dimension x,y,z NGX =    72 NGY =   48 NGZ =  126
   dimension x,y,z NGXF=   140 NGYF=   84 NGZF=  240
   support grid    NGXF=   140 NGYF=   84 NGZF=  240
   ions per type =              66   2   2
 NGX,Y,Z   is equivalent  to a cutoff of   9.08,  9.89,  9.20 a.u.
 NGXF,Y,Z  is equivalent  to a cutoff of  17.66, 17.30, 17.53 a.u.


 I would recommend the setting:
   dimension x,y,z NGX =    72 NGY =   44 NGZ =  125
 SYSTEM =  Bulk Rhodium calculation                
 POSCAR =   {VASPAtoms:66Rh}                       

 Startparameter for this run:
   NWRITE =      2    write-flag & timer
   PREC   = medium    medium, high low
   ISTART =      0    job   : 0-new  1-cont  2-samecut
   ICHARG =      2    charge: 1-file 2-atom 10-const
   ISPIN  =      1    spin polarized calculation?
   LNONCOLLINEAR =      F non collinear calculations
   LSORBIT =      F    spin-orbit coupling
   INIWAV =      1    electr: 0-lowe 1-rand  2-diag
   LASPH  =      F    aspherical Exc in radial PAW
   METAGGA=      F    non-selfconsistent MetaGGA calc.

 Electronic Relaxation 1
   ENCUT  =  500.0 eV  36.75 Ry    6.06 a.u.  24.03 14.71 41.51*2*pi/ulx,y,z
   ENINI  =  500.0     initial cutoff
   ENAUG  = 1000.0 eV  augmentation charge cutoff
   NELM   =    100;   NELMIN=  2; NELMDL=  0     # of ELM steps 
   EDIFF  = 0.1E-04   stopping-criterion for ELM
   LREAL  =      F    real-space projection
   LCOMPAT=      F    compatible to vasp.4.4
   LREAL_COMPAT= F    compatible to vasp.4.5.1-3
   GGA_COMPAT  = T    GGA compatible to vasp.4.4-vasp.4.6
   LMAXPAW     = -100 max onsite density
   LMAXMIX     =    2 max onsite mixed and CHGCAR
   VOSKOWN=      0    Vosko Wilk Nusair interpolation
   ROPT   =    0.00000   0.00000   0.00000
 Ionic relaxation
   EDIFFG = 0.1E-03   stopping-criterion for IOM
   NSW    =    100    number of steps for IOM
   NBLOCK =      1;   KBLOCK =    100    inner block; outer block 
   IBRION =      2    ionic relax: 0-MD 1-quasi-New 2-CG
   NFREE  =      1    steps in history (QN), initial steepest desc. (CG)
   ISIF   =      2    stress and relaxation
   IWAVPR =     11    prediction:  0-non 1-charg 2-wave 3-comb
   ISYM   =      2    0-nonsym 1-usesym 2-fastsym
   LCORR  =      T    Harris-Foulkes like correction to forces

   POTIM  =   0.50    time-step for ionic-motion
   TEIN   =    0.0    initial temperature
   TEBEG  =    0.0;   TEEND  =   0.0 temperature during run
   SMASS  =  -3.00    Nose mass-parameter (am)
   estimated Nose-frequenzy (Omega)   =  0.10E-29 period in steps =****** mass=  -0.397E-26a.u.
   NPACO  =    256;   APACO  = 16.0  distance and # of slots for P.C.
   PSTRESS=    0.0 pullay stress

  Mass of Ions in am
   POMASS = 102.91 12.01 16.00
  Ionic Valenz
   ZVAL   =   9.00  4.00  6.00
  Atomic Wigner-Seitz radii
   RWIGS  =  -1.00 -1.00 -1.00
   NELECT =     614.0000    total number of electrons
   NUPDOWN=      -1.0000    fix difference up-down

 DOS related values:
   EMIN   =  10.00;   EMAX   =-10.00  energy-range for DOS
   ISMEAR =     1;   SIGMA  =   0.20  broadening in eV -4-tet -1-fermi 0-gaus

 Electronic relaxation 2 (details)
   IALGO  =     38    algorithm
   LDIAG  =      T    sub-space diagonalisation
   IMIX   =      4    mixing-type and parameters
     AMIX     =   0.40;   BMIX     =  1.00
     AMIX_MAG =   1.60;   BMIX_MAG =  1.00
     AMIN     =   0.10
     WC   =   100.;   INIMIX=   1;  MIXPRE=   1

 Intra band minimization:
   WEIMIN = 0.0010     energy-eigenvalue tresh-hold
   EBREAK =  0.68E-08  absolut break condition
   DEPER  =   0.30     relativ break condition  

   TIME   =   0.10     timestep for ELM

  volume/ion in A,a.u.               =      34.59       233.43
  Fermi-wavevector in a.u.,eV,Ry     =   1.036208 14.608945  1.073727

 Second variation
   LSECVAR=     F    do a second variation

 Write flags
   LWAVE  =      T    write WAVECAR
   LCHARG =      T    write CHGCAR
   LVTOT  =      T    write LOCPOT, local potential
   LELF   =      F    write electronic localiz. function (ELF)
   LORBIT =      0    0 simple, 1 ext, 2 COOP (PROOUT)


 Dipole corrections
   IDIPOL =      0    1-x, 2-y, 3-z
   LDIPOL =      F    correct potential



--------------------------------------------------------------------------------------------------------


 conjugate gradient relaxation of ions
 charge density will be updated during run
 non-spin polarized calculation
 Variant of blocked Davidson
 Davidson routine will perform the subspace rotation
 performe sub-space diagonalisation
    after iterative eigenvector-optimisation
 modified Broyden-mixing scheme, WC =      100.0
 initial mixing is a Kerker type mixing with AMIX =  0.4000 and BMIX =      1.0000
 Hartree-type preconditioning will be used
 using additional bands           61
 reciprocal scheme for non local part
 use partial core corrections
 calculate Harris-corrections to forces   (improved forces if not selfconsistent)
 use gradient corrections 
 use of overlap-Matrix (Vanderbilt PP)
 Methfessel and Paxton  Order N= 1 SIGMA  =   0.20


--------------------------------------------------------------------------------------------------------


  energy-cutoff  :      500.00
  volume of cell :     2421.32
      direct lattice vectors                 reciprocal lattice vectors
    13.178800017  0.000000000  0.000000000     0.075879443  0.000000000  0.000000000
     0.000000000  8.070400000  0.000000000     0.000000000  0.123909596  0.000000000
     0.000000000  0.000000000 22.765700003     0.000000000  0.000000000  0.043925730

  length of vectors
    13.178800017  8.070400000 22.765700003     0.075879443  0.123909596  0.043925730



 k-points in units of 2pi/SCALE and weight: Automatic Mesh                          
   0.00000000  0.00000000  0.00000000       0.111
   0.20412582  0.00000000  0.00000000       0.222
   0.00000000  0.33333333  0.00000000       0.222
   0.20412582  0.33333333  0.00000000       0.222
  -0.20412582  0.33333333  0.00000000       0.222

 k-points in reciprocal lattice and weights: Automatic Mesh                          
   0.00000000  0.00000000  0.00000000       0.111
   0.33333333  0.00000000  0.00000000       0.222
   0.00000000  0.33333333  0.00000000       0.222
   0.33333333  0.33333333  0.00000000       0.222
  -0.33333333  0.33333333  0.00000000       0.222

 position of ions in fractional coordinates (direct lattice) 
   0.23518020  0.10314032  0.39553845
   0.73422645  0.10346889  0.39567830
   0.23528656  0.43769867  0.39489922
   0.73589788  0.43350503  0.39407059
   0.23516031  0.77014824  0.39170453
   0.73620615  0.77327103  0.39429830
   0.40174019  0.10450700  0.53440289
   0.90264560  0.10342828  0.53418155
   0.40176182  0.43597750  0.53403226
   0.90211634  0.43664956  0.53347764
   0.40159944  0.77013458  0.53313099
   0.90182451  0.77014294  0.53369593
   0.06723088  0.09856376  0.67010161
   0.56814258  0.10308506  0.66776485
   0.06693720  0.44101698  0.67048941
   0.56857380  0.43697929  0.66790383
   0.06928342  0.76995619  0.66730155
   0.57082236  0.76972342  0.66800723
   0.40266975  0.10392344  0.33199535
   0.90420315  0.10366317  0.33270042
   0.40492203  0.43666732  0.33209581
   0.90656003  0.43256333  0.32951263
   0.40535273  0.77056403  0.33223483
   0.90626128  0.77500166  0.32990468
   0.07167198  0.10349912  0.46630198
   0.57189825  0.10351952  0.46687022
   0.07137947  0.43699161  0.46651773
   0.57173509  0.43767441  0.46596534
   0.07084812  0.77021267  0.46581340
   0.57175342  0.76914173  0.46559778
   0.23728847  0.10031366  0.60570626
   0.73833113  0.10350368  0.60829730
   0.23759593  0.44007556  0.60593020
   0.73820654  0.43594989  0.60509571
   0.23926497  0.77014342  0.60431886
   0.73831515  0.77051064  0.60446251
   0.40239203  0.27070655  0.43247260
   0.90201955  0.27074829  0.43255004
   0.40240628  0.60313935  0.43219756
   0.90368629  0.60381069  0.43194302
   0.40248876  0.93675055  0.43243159
   0.90208140  0.93601904  0.43225234
   0.06981025  0.26982181  0.56805411
   0.57108335  0.27052059  0.56780408
   0.07148110  0.60288409  0.56744859
   0.57110208  0.60295067  0.56752999
   0.07141270  0.93761436  0.56774305
   0.57100557  0.93691191  0.56757209
   0.06743538  0.27184879  0.36355656
   0.56691345  0.26741065  0.36377458
   0.07078612  0.60278513  0.36326059
   0.57220607  0.60383479  0.35588175
   0.06830795  0.93618579  0.36366255
   0.56747986  0.93976604  0.36339319
   0.23672562  0.27051898  0.49908968
   0.73783475  0.26788152  0.50066296
   0.23566253  0.60574311  0.49933572
   0.73677058  0.60312013  0.50090915
   0.23641758  0.93442598  0.49828178
   0.73707614  0.93920225  0.50171583
   0.40128214  0.26978617  0.64412375
   0.90270425  0.27084520  0.63674362
   0.40657721  0.60619403  0.63622370
   0.90605823  0.60176917  0.63644297
   0.40601816  0.93383827  0.63660536
   0.90517400  0.93744913  0.63633602
   0.25556388  0.27008258  0.67271596
   0.71793552  0.60348505  0.32727804
   0.19797756  0.27037801  0.71685677
   0.77545226  0.60319060  0.28315494

 position of ions in cartesian coordinates  (Angst):
   3.09939287  0.83238360  9.00470976
   9.67622355  0.83503532  9.00789337
   3.10079456  3.53240337  8.99015718
   9.69825104  3.49855902  8.97129283
   3.09913066  6.21540439  8.91742778
   9.70231357  6.24060650  8.97647682
   5.29445361  0.84341333 12.16605579
  11.89578586  0.83470761 12.16101696
   5.29473865  3.51851280 12.15761817
  11.88881082  3.52393660 12.14499184
   5.29259866  6.21529409 12.13710017
  11.88496488  6.21536161 12.14996145
   0.88602235  0.79544900 15.25533217
   7.48743741  0.83193766 15.20213423
   0.88215204  3.55918346 15.26416083
   7.49312035  3.52659762 15.20529819
   0.91307229  6.21385445 15.19158690
   7.52275371  6.21197589 15.20765223
   5.30670412  0.83870372  7.55810664
  11.91631246  0.83660323  7.57415798
   5.33638650  3.52407990  7.56039367
  11.94737339  3.49095907  7.50158565
   5.34206260  6.21875994  7.56355853
  11.94343619  6.25457337  7.51051104
   0.94455068  0.83527933 10.61569106
   7.53693272  0.83544396 10.62862726
   0.94069581  3.52669707 10.62060263
   7.53478237  3.53220758 10.60802724
   0.93369326  6.21592437 10.60456822
   7.53502401  6.20728143 10.59965946
   3.12717726  0.80957135 13.78932703
   9.73031837  0.83531608 13.84831375
   3.13122921  3.55158578 13.79442518
   9.72867640  3.51828995 13.77542747
   3.15322519  6.21536547 13.75774189
   9.73010771  6.21832908 13.76101209
   5.30304415  2.18471015  9.84554139
  11.88753520  2.18504696  9.84730441
   5.30323195  4.86757585  9.83928009
  11.90950093  4.87299379  9.83348520
   5.30431893  7.55995167  9.84460776
  11.88835040  7.55404807  9.84052711
   0.92001533  2.17756991 12.93214951
   7.52619329  2.18320935 12.92645742
   0.94203511  4.86551576 12.91836430
   7.52644005  4.86605310 12.92021743
   0.94113375  7.56692295 12.92506788
   7.52516819  7.56125387 12.92117592
   0.88871738  2.19392850  8.27661954
   7.47123901  2.15811091  8.28158297
   0.93287616  4.86471714  8.26988162
   7.54098932  4.87318828  8.10189720
   0.90021681  7.55539382  8.27903244
   7.47870353  7.58428789  8.27290043
   3.11975966  2.18319636 11.36212591
   9.72377668  2.16191099 11.39794268
   3.10574935  4.88858917 11.36772727
   9.70975216  4.86742068 11.40354732
   3.11570000  7.54119144 11.34373355
   9.71377908  7.57973785 11.42191196
   5.28841705  2.17728227 14.66392809
  11.89655873  2.18582914 14.49591418
   5.35819972  4.89222829 14.48407792
  11.94076026  4.85651788 14.48906963
   5.35083213  7.53644839 14.49276657
  11.92910709  7.56558943 14.48663482
   3.36802530  2.17967447 15.31484969
   9.46152864  4.87036571  7.45071360
   2.60910672  2.18205865 16.31974628
  10.21953026  4.86798943  6.44622053



--------------------------------------------------------------------------------------------------------


 k-point  1 :  0.00000.00000.0000  plane waves:  61419
 k-point  2 :  0.33330.00000.0000  plane waves:  61480
 k-point  3 :  0.00000.33330.0000  plane waves:  61498
 k-point  4 :  0.33330.33330.0000  plane waves:  61464
 k-point  5 :  -.33330.33330.0000  plane waves:  61464

 maximum and minimum number of plane-waves per node :  61498 61419

 maximum number of plane-waves:  61498
 maximal index in each direction: 
   IXMAX= 24   IYMAX= 14   IZMAX= 41
   IXMIN=-24   IYMIN=-15   IZMIN=-41

 WARNING: wrap around error must be expected set NGX to  98
 WARNING: wrap around error must be expected set NGY to  60
 WARNING: wrap around error must be expected set NGZ to 166

 parallel 3dFFT wavefunction:
    minimum data exchange during FFTs selected (reduces bandwidth)
 parallel 3dFFT charge:
    minimum data exchange during FFTs selected (reduces bandwidth)

 For storing wavefunctions 1809.53 MBYTES are necessary
 For predicting wavefunctions  744.54 MBYTES are necessary
Broyden mixing: mesh for mixing (old mesh)
   NGX = 49   NGY = 29   NGZ = 83
  (NGX  =140   NGY  = 84   NGZ  =240)
 gives a total of 117943 points
 initial charge density was supplied:
 charge density of overlapping atoms calculated
 number of electron  614.0000000 magnetization 
 keeping initial charge density in first step


--------------------------------------------------------------------------------------------------------


 Maximum index for augmentation-charges          573 (set IRDMAX)


--------------------------------------------------------------------------------------------------------


 First call to EWALD:  gamma=   0.132
 Maximum number of real-space cells 3x 4x 2
 Maximum number of reciprocal cells 3x 2x 4

    FEWALD:  VPU time    0.05: CPU time    0.05


----------------------------------------- Iteration    1(   1)  ---------------------------------------


    POTLOK:  VPU time    0.70: CPU time    0.70
    SETDIJ:  VPU time    0.04: CPU time    0.04
    EDDAV :  VPU time  673.39: CPU time  673.50
    DOS   :  VPU time   -0.00: CPU time   -0.00
    ------------------------------------------
      LOOP:  VPU time  674.17: CPU time  674.28

 eigenvalue-minimisations  :  3680
 total energy-change (2. order) : 0.5552766E+04  (-0.2574197E+05)
 number of electron  614.0000000 magnetization 
 augmentation part   614.0000000 magnetization 

 Free energy of the ion-electron system (eV)
  ---------------------------------------------------
  alpha Z        PSCENC =      1982.57798826
  Ewald energy   TEWEN  =    181798.54329552
  -1/2 Hartree   DENC   =   -225663.33638786
  -V(xc)+E(xc)   XCENC  =     -1051.24910887
  PAW double counting   =     33705.15623056   -30927.95703667
  entropy T*S    EENTRO =         0.01962926
  eigenvalues    EBANDS =      3857.94351352
  atomic energy  EATOM  =     41851.06754236
  ---------------------------------------------------
  free energy    TOTEN  =      5552.76566608 eV

  energy without entropy =     5552.74603682  energy(sigma->0) =     5552.75912300


--------------------------------------------------------------------------------------------------------




----------------------------------------- Iteration    1(   2)  ---------------------------------------


    EDDAV :  VPU time  730.38: CPU time  730.50
    DOS   :  VPU time   -0.00: CPU time   -0.00
    ------------------------------------------
      LOOP:  VPU time  730.42: CPU time  730.54

 eigenvalue-minimisations  :  3760
 total energy-change (2. order) :-0.5564781E+04  (-0.5270059E+04)
 number of electron  614.0000000 magnetization 
 augmentation part   614.0000000 magnetization 

 Free energy of the ion-electron system (eV)
  ---------------------------------------------------
  alpha Z        PSCENC =      1982.57798826
  Ewald energy   TEWEN  =    181798.54329552
  -1/2 Hartree   DENC   =   -225663.33638786
  -V(xc)+E(xc)   XCENC  =     -1051.24910887
  PAW double counting   =     33705.15623056   -30927.95703667
  entropy T*S    EENTRO =        -0.02749000
  eigenvalues    EBANDS =     -1706.79056184
  atomic energy  EATOM  =     41851.06754236
  ---------------------------------------------------
  free energy    TOTEN  =       -12.01552853 eV

  energy without entropy =      -11.98803853  energy(sigma->0) =      -12.00636520


--------------------------------------------------------------------------------------------------------




----------------------------------------- Iteration    1(   3)  ---------------------------------------


    EDDAV :  VPU time  933.09: CPU time  933.25
    DOS   :  VPU time    0.00: CPU time   -0.00
    ------------------------------------------
      LOOP:  VPU time  933.12: CPU time  933.27

 eigenvalue-minimisations  :  5088
 total energy-change (2. order) :-0.4598718E+03  (-0.4201771E+03)
 number of electron  614.0000000 magnetization 
 augmentation part   614.0000000 magnetization 

 Free energy of the ion-electron system (eV)
  ---------------------------------------------------
  alpha Z        PSCENC =      1982.57798826
  Ewald energy   TEWEN  =    181798.54329552
  -1/2 Hartree   DENC   =   -225663.33638786
  -V(xc)+E(xc)   XCENC  =     -1051.24910887
  PAW double counting   =     33705.15623056   -30927.95703667
  entropy T*S    EENTRO =        -0.01440228
  eigenvalues    EBANDS =     -2166.67544181
  atomic energy  EATOM  =     41851.06754236
  ---------------------------------------------------
  free energy    TOTEN  =      -471.88732078 eV

  energy without entropy =     -471.87291851  energy(sigma->0) =     -471.88252002


--------------------------------------------------------------------------------------------------------




----------------------------------------- Iteration    1(   4)  ---------------------------------------


    EDDAV :  VPU time 1021.55: CPU time 1021.72
    DOS   :  VPU time    0.00: CPU time   -0.00
    ------------------------------------------
      LOOP:  VPU time 1021.58: CPU time 1021.75

 eigenvalue-minimisations  :  5408
 total energy-change (2. order) :-0.4011889E+02  (-0.3693394E+02)
 number of electron  614.0000000 magnetization 
 augmentation part   614.0000000 magnetization 

 Free energy of the ion-electron system (eV)
  ---------------------------------------------------
  alpha Z        PSCENC =      1982.57798826
  Ewald energy   TEWEN  =    181798.54329552
  -1/2 Hartree   DENC   =   -225663.33638786
  -V(xc)+E(xc)   XCENC  =     -1051.24910887
  PAW double counting   =     33705.15623056   -30927.95703667
  entropy T*S    EENTRO =        -0.03474492
  eigenvalues    EBANDS =     -2206.77399127
  atomic energy  EATOM  =     41851.06754236
  ---------------------------------------------------
  free energy    TOTEN  =      -512.00621289 eV

  energy without entropy =     -511.97146797  energy(sigma->0) =     -511.99463125


--------------------------------------------------------------------------------------------------------




----------------------------------------- Iteration    1(   5)  ---------------------------------------


    EDDAV :  VPU time 1023.62: CPU time 1023.79
    DOS   :  VPU time    0.00: CPU time   -0.00
    CHARGE:  VPU time    5.21: CPU time    5.21
    MIXING:  VPU time    0.01: CPU time    0.01
    ------------------------------------------
      LOOP:  VPU time 1028.87: CPU time 1029.04

 eigenvalue-minimisations  :  5584
 total energy-change (2. order) :-0.1984108E+01  (-0.1887667E+01)
 number of electron  613.9999884 magnetization 
 augmentation part   223.6285725 magnetization 

 Broyden mixing:
  rms(total) = 0.34961E+01    rms(broyden)= 0.34959E+01
  rms(prec ) = 0.37915E+01
  weight for this iteration     100.00

 Free energy of the ion-electron system (eV)
  ---------------------------------------------------
  alpha Z        PSCENC =      1982.57798826
  Ewald energy   TEWEN  =    181798.54329552
  -1/2 Hartree   DENC   =   -225663.33638786
  -V(xc)+E(xc)   XCENC  =     -1051.24910887
  PAW double counting   =     33705.15623056   -30927.95703667
  entropy T*S    EENTRO =        -0.04344469
  eigenvalues    EBANDS =     -2208.74939935
  atomic energy  EATOM  =     41851.06754236
  ---------------------------------------------------
  free energy    TOTEN  =      -513.99032073 eV

  energy without entropy =     -513.94687605  energy(sigma->0) =     -513.97583917


--------------------------------------------------------------------------------------------------------




----------------------------------------- Iteration    1(   6)  ---------------------------------------


    POTLOK:  VPU time    0.66: CPU time    0.66
    SETDIJ:  VPU time    0.04: CPU time    0.04
    EDDAV :  VPU time 1105.33: CPU time 1105.52
    DOS   :  VPU time    0.00: CPU time   -0.00
    CHARGE:  VPU time    5.21: CPU time    5.21
    MIXING:  VPU time    0.02: CPU time    0.02
    ------------------------------------------
      LOOP:  VPU time 1111.31: CPU time 1111.49

 eigenvalue-minimisations  :  6032
 total energy-change (2. order) : 0.2341029E+02  (-0.1435751E+02)
 number of electron  613.9999878 magnetization 
 augmentation part   236.7218784 magnetization 

 Broyden mixing:
  rms(total) = 0.25912E+01    rms(broyden)= 0.25910E+01
  rms(prec ) = 0.32098E+01
  weight for this iteration     100.00

 eigenvalues of (default mixing * dielectric matrix)
  average eigenvalue GAMMA=   0.7023
  0.7023

 Free energy of the ion-electron system (eV)
  ---------------------------------------------------
  alpha Z        PSCENC =      1982.57798826
  Ewald energy   TEWEN  =    181798.54329552
  -1/2 Hartree   DENC   =   -225489.55582479
  -V(xc)+E(xc)   XCENC  =     -1061.98875801
  PAW double counting   =     34133.42820214   -31424.67594338
  entropy T*S    EENTRO =        -0.03641545
  eigenvalues    EBANDS =     -2279.94012107
  atomic energy  EATOM  =     41851.06754236
  ---------------------------------------------------
  free energy    TOTEN  =      -490.58003443 eV

  energy without entropy =     -490.54361898  energy(sigma->0) =     -490.56789594


--------------------------------------------------------------------------------------------------------




----------------------------------------- Iteration    1(   7)  ---------------------------------------


    POTLOK:  VPU time    0.66: CPU time    0.66
    SETDIJ:  VPU time    0.04: CPU time    0.04
    EDDAV :  VPU time 1126.69: CPU time 1126.88
    DOS   :  VPU time    0.00: CPU time   -0.00
    CHARGE:  VPU time    5.22: CPU time    5.22
    MIXING:  VPU time    0.01: CPU time    0.01
    ------------------------------------------
      LOOP:  VPU time 1132.66: CPU time 1132.85

 eigenvalue-minimisations  :  6592
 total energy-change (2. order) :-0.4863844E+02  (-0.1180452E+02)
 number of electron  613.9999851 magnetization 
 augmentation part   241.1745900 magnetization 

 Broyden mixing:
  rms(total) = 0.65329E+01    rms(broyden)= 0.65328E+01
  rms(prec ) = 0.90711E+01
  weight for this iteration     100.00

 eigenvalues of (default mixing * dielectric matrix)
  average eigenvalue GAMMA=   0.5982
  0.1629  1.0335

 Free energy of the ion-electron system (eV)
  ---------------------------------------------------
  alpha Z        PSCENC =      1982.57798826
  Ewald energy   TEWEN  =    181798.54329552
  -1/2 Hartree   DENC   =   -225250.99735515
  -V(xc)+E(xc)   XCENC  =     -1062.38997866
  PAW double counting   =     34568.15347319   -31876.40870169
  entropy T*S    EENTRO =         0.07666530
  eigenvalues    EBANDS =     -2549.84140518
  atomic energy  EATOM  =     41851.06754236
  ---------------------------------------------------
  free energy    TOTEN  =      -539.21847604 eV

  energy without entropy =     -539.29514134  energy(sigma->0) =     -539.24403114


--------------------------------------------------------------------------------------------------------




----------------------------------------- Iteration    1(   8)  ---------------------------------------


    POTLOK:  VPU time    0.75: CPU time    0.75
    SETDIJ:  VPU time    0.04: CPU time    0.04
    EDDAV :  VPU time 1244.34: CPU time 1244.54
    DOS   :  VPU time   -0.00: CPU time   -0.00
    CHARGE:  VPU time    5.23: CPU time    5.23
    MIXING:  VPU time    0.02: CPU time    0.02
    ------------------------------------------
      LOOP:  VPU time 1250.40: CPU time 1250.61

 eigenvalue-minimisations  :  6896
 total energy-change (2. order) : 0.5057000E+02  (-0.7089593E+01)
 number of electron  613.9999878 magnetization 
 augmentation part   237.6692109 magnetization 

 Broyden mixing:
  rms(total) = 0.24086E+01    rms(broyden)= 0.24086E+01
  rms(prec ) = 0.30597E+01
  weight for this iteration     100.00

 eigenvalues of (default mixing * dielectric matrix)
  average eigenvalue GAMMA=   0.4870
  1.0892  0.1217  0.2502

 Free energy of the ion-electron system (eV)
  ---------------------------------------------------
  alpha Z        PSCENC =      1982.57798826
  Ewald energy   TEWEN  =    181798.54329552
  -1/2 Hartree   DENC   =   -225578.74230843
  -V(xc)+E(xc)   XCENC  =     -1063.77068075
  PAW double counting   =     35005.32553633   -32329.48036875
  entropy T*S    EENTRO =         0.03336779
  eigenvalues    EBANDS =     -2154.20285118
  atomic energy  EATOM  =     41851.06754236
  ---------------------------------------------------
  free energy    TOTEN  =      -488.64847884 eV

  energy without entropy =     -488.68184663  energy(sigma->0) =     -488.65960144


--------------------------------------------------------------------------------------------------------




----------------------------------------- Iteration    1(   9)  ---------------------------------------


    POTLOK:  VPU time    0.64: CPU time    0.64
    SETDIJ:  VPU time    0.04: CPU time    0.04
    EDDAV :  VPU time 1176.15: CPU time 1176.34
    DOS   :  VPU time    0.00: CPU time   -0.00
    CHARGE:  VPU time    5.23: CPU time    5.23
    MIXING:  VPU time    0.01: CPU time    0.01
    ------------------------------------------
      LOOP:  VPU time 1182.10: CPU time 1182.30

 eigenvalue-minimisations  :  6496
 total energy-change (2. order) : 0.5255405E+01  (-0.2190479E+01)
 number of electron  613.9999877 magnetization 
 augmentation part   237.3000249 magnetization 

 Broyden mixing:
  rms(total) = 0.11994E+01    rms(broyden)= 0.11993E+01
  rms(prec ) = 0.16709E+01
  weight for this iteration     100.00

 eigenvalues of (default mixing * dielectric matrix)
  average eigenvalue GAMMA=   0.4778
  1.1848  0.4352  0.1457  0.1457

 Free energy of the ion-electron system (eV)
  ---------------------------------------------------
  alpha Z        PSCENC =      1982.57798826
  Ewald energy   TEWEN  =    181798.54329552
  -1/2 Hartree   DENC   =   -225597.11802526
  -V(xc)+E(xc)   XCENC  =     -1063.90294981
  PAW double counting   =     35134.83131848   -32463.92232077
  entropy T*S    EENTRO =         0.03621180
  eigenvalues    EBANDS =     -2125.50613477
  atomic energy  EATOM  =     41851.06754236
  ---------------------------------------------------
  free energy    TOTEN  =      -483.39307419 eV

  energy without entropy =     -483.42928599  energy(sigma->0) =     -483.40514479


--------------------------------------------------------------------------------------------------------




----------------------------------------- Iteration    1(  10)  ---------------------------------------


    POTLOK:  VPU time    0.63: CPU time    0.63
    SETDIJ:  VPU time    0.04: CPU time    0.04
    EDDAV :  VPU time 1180.25: CPU time 1180.45
    DOS   :  VPU time    0.00: CPU time   -0.00
    CHARGE:  VPU time    5.72: CPU time    5.72
    MIXING:  VPU time    0.02: CPU time    0.02
    ------------------------------------------
      LOOP:  VPU time 1186.69: CPU time 1186.88

 eigenvalue-minimisations  :  6496
 total energy-change (2. order) :-0.7125395E+00  (-0.9802900E+00)
 number of electron  613.9999877 magnetization 
 augmentation part   237.7334057 magnetization 

 Broyden mixing:
  rms(total) = 0.14955E+01    rms(broyden)= 0.14954E+01
  rms(prec ) = 0.23541E+01
  weight for this iteration     100.00

 eigenvalues of (default mixing * dielectric matrix)
  average eigenvalue GAMMA=   0.4955
  1.3797  0.6524  0.1976  0.1449  0.1027

 Free energy of the ion-electron system (eV)
  ---------------------------------------------------
  alpha Z        PSCENC =      1982.57798826
  Ewald energy   TEWEN  =    181798.54329552
  -1/2 Hartree   DENC   =   -225577.15402713
  -V(xc)+E(xc)   XCENC  =     -1063.89506096
  PAW double counting   =     35302.60793854   -32638.11084589
  entropy T*S    EENTRO =         0.00259377
  eigenvalues    EBANDS =     -2139.74503813
  atomic energy  EATOM  =     41851.06754236
  ---------------------------------------------------
  free energy    TOTEN  =      -484.10561366 eV

  energy without entropy =     -484.10820743  energy(sigma->0) =     -484.10647825


--------------------------------------------------------------------------------------------------------




----------------------------------------- Iteration    1(  11)  ---------------------------------------


    POTLOK:  VPU time    0.71: CPU time    0.71
    SETDIJ:  VPU time    0.04: CPU time    0.04
    EDDAV :  VPU time 1194.08: CPU time 1194.27
    DOS   :  VPU time    0.00: CPU time   -0.00
    CHARGE:  VPU time    5.58: CPU time    5.58
    MIXING:  VPU time    0.02: CPU time    0.02
    ------------------------------------------
      LOOP:  VPU time 1200.46: CPU time 1200.66

 eigenvalue-minimisations  :  6624
 total energy-change (2. order) : 0.3700787E+00  (-0.6453249E+00)
 number of electron  613.9999874 magnetization 
 augmentation part   237.9764337 magnetization 

 Broyden mixing:
  rms(total) = 0.14464E+01    rms(broyden)= 0.14464E+01
  rms(prec ) = 0.25000E+01
  weight for this iteration     100.00

 eigenvalues of (default mixing * dielectric matrix)
  average eigenvalue GAMMA=   0.4509
  1.4528  0.6860  0.2249  0.1326  0.1326  0.0766

 Free energy of the ion-electron system (eV)
  ---------------------------------------------------
  alpha Z        PSCENC =      1982.57798826
  Ewald energy   TEWEN  =    181798.54329552
  -1/2 Hartree   DENC   =   -225587.50956334
  -V(xc)+E(xc)   XCENC  =     -1063.93915228
  PAW double counting   =     35516.01998566   -32859.53706873
  entropy T*S    EENTRO =        -0.01552814
  eigenvalues    EBANDS =     -2120.94303422
  atomic energy  EATOM  =     41851.06754236
  ---------------------------------------------------
  free energy    TOTEN  =      -483.73553491 eV

  energy without entropy =     -483.72000677  energy(sigma->0) =     -483.73035886


--------------------------------------------------------------------------------------------------------




----------------------------------------- Iteration    1(  12)  ---------------------------------------


    POTLOK:  VPU time    0.72: CPU time    0.72
    SETDIJ:  VPU time    0.04: CPU time    0.04
    EDDAV :  VPU time 1128.56: CPU time 1128.75
    DOS   :  VPU time    0.00: CPU time   -0.00
    CHARGE:  VPU time    5.31: CPU time    5.31
    MIXING:  VPU time    0.02: CPU time    0.02
    ------------------------------------------
      LOOP:  VPU time 1134.68: CPU time 1135.21

 eigenvalue-minimisations  :  6576
 total energy-change (2. order) : 0.1833255E+01  (-0.3433003E+00)
 number of electron  613.9999874 magnetization 
 augmentation part   237.9731620 magnetization 

 Broyden mixing:
  rms(total) = 0.61519E+00    rms(broyden)= 0.61517E+00
  rms(prec ) = 0.89654E+00
  weight for this iteration     100.00

 eigenvalues of (default mixing * dielectric matrix)
  average eigenvalue GAMMA=   0.4402
  1.5458  0.6968  0.3542  0.1599  0.1599  0.1021  0.0630

 Free energy of the ion-electron system (eV)
  ---------------------------------------------------
  alpha Z        PSCENC =      1982.57798826
  Ewald energy   TEWEN  =    181798.54329552
  -1/2 Hartree   DENC   =   -225594.76876943
  -V(xc)+E(xc)   XCENC  =     -1063.95340134
  PAW double counting   =     35591.31954304   -32937.56097422
  entropy T*S    EENTRO =        -0.00744170
  eigenvalues    EBANDS =     -2109.12006191
  atomic energy  EATOM  =     41851.06754236
  ---------------------------------------------------
  free energy    TOTEN  =      -481.90227941 eV

  energy without entropy =     -481.89483771  energy(sigma->0) =     -481.89979885


--------------------------------------------------------------------------------------------------------




----------------------------------------- Iteration    1(  13)  ---------------------------------------


    POTLOK:  VPU time    0.71: CPU time    0.71
    SETDIJ:  VPU time    0.04: CPU time    0.04
    EDDAV :  VPU time 1170.77: CPU time 1170.97
    DOS   :  VPU time    0.00: CPU time   -0.00
    CHARGE:  VPU time    5.75: CPU time    5.75
    MIXING:  VPU time    0.02: CPU time    0.02
    ------------------------------------------
      LOOP:  VPU time 1177.31: CPU time 1177.54

 eigenvalue-minimisations  :  6512
 total energy-change (2. order) : 0.3619303E+00  (-0.9850307E-01)
 number of electron  613.9999875 magnetization 
 augmentation part   238.1097737 magnetization 

 Broyden mixing:
  rms(total) = 0.30557E+00    rms(broyden)= 0.30557E+00
  rms(prec ) = 0.36656E+00
  weight for this iteration     100.00

 eigenvalues of (default mixing * dielectric matrix)
  average eigenvalue GAMMA=   0.5150
  1.8230  0.7958  0.7958  0.2213  0.1776  0.1429  0.1015  0.0624

 Free energy of the ion-electron system (eV)
  ---------------------------------------------------
  alpha Z        PSCENC =      1982.57798826
  Ewald energy   TEWEN  =    181798.54329552
  -1/2 Hartree   DENC   =   -225598.34947928
  -V(xc)+E(xc)   XCENC  =     -1063.95086561
  PAW double counting   =     35680.65659327   -33029.94976821
  entropy T*S    EENTRO =        -0.02078612
  eigenvalues    EBANDS =     -2102.11486932
  atomic energy  EATOM  =     41851.06754236
  ---------------------------------------------------
  free energy    TOTEN  =      -481.54034912 eV

  energy without entropy =     -481.51956300  energy(sigma->0) =     -481.53342041


--------------------------------------------------------------------------------------------------------




----------------------------------------- Iteration    1(  14)  ---------------------------------------


    POTLOK:  VPU time    0.71: CPU time    0.72
    SETDIJ:  VPU time    0.04: CPU time    0.04
    EDDAV :  VPU time 1145.42: CPU time 1145.62
    DOS   :  VPU time   -0.00: CPU time   -0.00
    CHARGE:  VPU time    5.76: CPU time    5.76
    MIXING:  VPU time    0.02: CPU time    0.02
    ------------------------------------------
      LOOP:  VPU time 1151.99: CPU time 1152.19

 eigenvalue-minimisations  :  6304
 total energy-change (2. order) :-0.5140707E-01  (-0.5921387E-01)
 number of electron  613.9999875 magnetization 
 augmentation part   238.2338881 magnetization 

 Broyden mixing:
  rms(total) = 0.41972E+00    rms(broyden)= 0.41972E+00
  rms(prec ) = 0.54670E+00
  weight for this iteration     100.00

 eigenvalues of (default mixing * dielectric matrix)
  average eigenvalue GAMMA=   0.5566
  2.2562  1.0787  0.7613  0.2685  0.1853  0.1480  0.1480  0.1013  0.0623

 Free energy of the ion-electron system (eV)
  ---------------------------------------------------
  alpha Z        PSCENC =      1982.57798826
  Ewald energy   TEWEN  =    181798.54329552
  -1/2 Hartree   DENC   =   -225622.24696232
  -V(xc)+E(xc)   XCENC  =     -1063.94020964
  PAW double counting   =     35857.81357390   -33212.70952881
  entropy T*S    EENTRO =        -0.01434220
  eigenvalues    EBANDS =     -2072.68311327
  atomic energy  EATOM  =     41851.06754236
  ---------------------------------------------------
  free energy    TOTEN  =      -481.59175619 eV

  energy without entropy =     -481.57741400  energy(sigma->0) =     -481.58697546


--------------------------------------------------------------------------------------------------------




----------------------------------------- Iteration    1(  15)  ---------------------------------------


    POTLOK:  VPU time    0.72: CPU time    0.72
    SETDIJ:  VPU time    0.04: CPU time    0.04
    EDDAV :  VPU time 1162.07: CPU time 1162.27
    DOS   :  VPU time    0.00: CPU time   -0.00
    CHARGE:  VPU time    5.77: CPU time    5.77
    MIXING:  VPU time    0.02: CPU time    0.02
    ------------------------------------------
      LOOP:  VPU time 1168.65: CPU time 1168.85

 eigenvalue-minimisations  :  6432
 total energy-change (2. order) : 0.1408406E+00  (-0.5795999E-01)
 number of electron  613.9999875 magnetization 
 augmentation part   238.3255422 magnetization 

 Broyden mixing:
  rms(total) = 0.26017E+00    rms(broyden)= 0.26017E+00
  rms(prec ) = 0.36412E+00
  weight for this iteration     100.00

 eigenvalues of (default mixing * dielectric matrix)
  average eigenvalue GAMMA=   0.5612
  2.4122  1.1722  0.7472  0.4396  0.2209  0.1778  0.1464  0.1327  0.1012  0.0623

 Free energy of the ion-electron system (eV)
  ---------------------------------------------------
  alpha Z        PSCENC =      1982.57798826
  Ewald energy   TEWEN  =    181798.54329552
  -1/2 Hartree   DENC   =   -225642.43280242
  -V(xc)+E(xc)   XCENC  =     -1063.85612355
  PAW double counting   =     36017.95223995   -33377.68982647
  entropy T*S    EENTRO =        -0.02313737
  eigenvalues    EBANDS =     -2047.59009190
  atomic energy  EATOM  =     41851.06754236
  ---------------------------------------------------
  free energy    TOTEN  =      -481.45091560 eV

  energy without entropy =     -481.42777823  energy(sigma->0) =     -481.44320315


--------------------------------------------------------------------------------------------------------




----------------------------------------- Iteration    1(  16)  ---------------------------------------


    POTLOK:  VPU time    0.72: CPU time    0.72
    SETDIJ:  VPU time    0.04: CPU time    0.04
    EDDAV :  VPU time 1179.78: CPU time 1179.98
    DOS   :  VPU time    0.00: CPU time   -0.00
    CHARGE:  VPU time    5.62: CPU time    5.63
    MIXING:  VPU time    0.02: CPU time    0.02
    ------------------------------------------
      LOOP:  VPU time 1186.22: CPU time 1186.44

 eigenvalue-minimisations  :  6496
 total energy-change (2. order) :-0.1276427E-01  (-0.4174718E-01)
 number of electron  613.9999875 magnetization 
 augmentation part   238.3356752 magnetization 

 Broyden mixing:
  rms(total) = 0.28875E+00    rms(broyden)= 0.28875E+00
  rms(prec ) = 0.41010E+00
  weight for this iteration     100.00

 eigenvalues of (default mixing * dielectric matrix)
  average eigenvalue GAMMA=   0.5585
  2.4162  1.3008  0.7156  0.7156  0.2373  0.1880  0.0623  0.1472  0.1472  0.1014
  0.1118

 Free energy of the ion-electron system (eV)
  ---------------------------------------------------
  alpha Z        PSCENC =      1982.57798826
  Ewald energy   TEWEN  =    181798.54329552
  -1/2 Hartree   DENC   =   -225655.45843148
  -V(xc)+E(xc)   XCENC  =     -1063.76281963
  PAW double counting   =     36072.64410121   -33433.77287068
  entropy T*S    EENTRO =        -0.02836910
  eigenvalues    EBANDS =     -2033.27411634
  atomic energy  EATOM  =     41851.06754236
  ---------------------------------------------------
  free energy    TOTEN  =      -481.46367987 eV

  energy without entropy =     -481.43531078  energy(sigma->0) =     -481.45422351


--------------------------------------------------------------------------------------------------------




----------------------------------------- Iteration    1(  17)  ---------------------------------------


    POTLOK:  VPU time    0.71: CPU time    0.71
    SETDIJ:  VPU time    0.04: CPU time    0.04
    EDDAV :  VPU time 1082.11: CPU time 1082.29
    DOS   :  VPU time    0.00: CPU time   -0.00
    CHARGE:  VPU time    5.24: CPU time    5.24
    MIXING:  VPU time    0.03: CPU time    0.03
    ------------------------------------------
      LOOP:  VPU time 1088.16: CPU time 1088.34

 eigenvalue-minimisations  :  6352
 total energy-change (2. order) : 0.6179133E-01  (-0.2474257E-01)
 number of electron  613.9999875 magnetization 
 augmentation part   238.2805940 magnetization 

 Broyden mixing:
  rms(total) = 0.15959E+00    rms(broyden)= 0.15958E+00
  rms(prec ) = 0.20486E+00
  weight for this iteration     100.00

 eigenvalues of (default mixing * dielectric matrix)
  average eigenvalue GAMMA=   0.5402
  2.3399  1.4015  0.7978  0.7282  0.2529  0.2325  0.0623  0.1672  0.1538  0.1403
  0.1009  0.1048

 Free energy of the ion-electron system (eV)
  ---------------------------------------------------
  alpha Z        PSCENC =      1982.57798826
  Ewald energy   TEWEN  =    181798.54329552
  -1/2 Hartree   DENC   =   -225671.40338576
  -V(xc)+E(xc)   XCENC  =     -1063.64654971
  PAW double counting   =     36099.34761971   -33460.85150098
  entropy T*S    EENTRO =        -0.02416498
  eigenvalues    EBANDS =     -2017.01273298
  atomic energy  EATOM  =     41851.06754236
  ---------------------------------------------------
  free energy    TOTEN  =      -481.40188855 eV

  energy without entropy =     -481.37772357  energy(sigma->0) =     -481.39383355


--------------------------------------------------------------------------------------------------------




----------------------------------------- Iteration    1(  18)  ---------------------------------------


    POTLOK:  VPU time    0.67: CPU time    0.67
    SETDIJ:  VPU time    0.04: CPU time    0.04
    EDDAV :  VPU time 1165.52: CPU time 1165.72
    DOS   :  VPU time    0.00: CPU time   -0.00
    CHARGE:  VPU time    5.80: CPU time    5.80
    MIXING:  VPU time    0.03: CPU time    0.03
    ------------------------------------------
      LOOP:  VPU time 1172.08: CPU time 1172.28

 eigenvalue-minimisations  :  6528
 total energy-change (2. order) : 0.2788540E-01  (-0.7195586E-02)
 number of electron  613.9999875 magnetization 
 augmentation part   238.2400037 magnetization 

 Broyden mixing:
  rms(total) = 0.65212E-01    rms(broyden)= 0.65210E-01
  rms(prec ) = 0.85035E-01
  weight for this iteration     100.00

 eigenvalues of (default mixing * dielectric matrix)
  average eigenvalue GAMMA=   0.5252
  2.3185  1.4261  0.8196  0.7126  0.3804  0.2514  0.1844  0.1844  0.0623  0.1412
  0.1412  0.1037  0.1014

 Free energy of the ion-electron system (eV)
  ---------------------------------------------------
  alpha Z        PSCENC =      1982.57798826
  Ewald energy   TEWEN  =    181798.54329552
  -1/2 Hartree   DENC   =   -225678.74696357
  -V(xc)+E(xc)   XCENC  =     -1063.57971846
  PAW double counting   =     36101.07713193   -33462.39908112
  entropy T*S    EENTRO =        -0.02289294
  eigenvalues    EBANDS =     -2009.89130513
  atomic energy  EATOM  =     41851.06754236
  ---------------------------------------------------
  free energy    TOTEN  =      -481.37400315 eV

  energy without entropy =     -481.35111021  energy(sigma->0) =     -481.36637217


--------------------------------------------------------------------------------------------------------




----------------------------------------- Iteration    1(  19)  ---------------------------------------


    POTLOK:  VPU time    0.71: CPU time    0.71
    SETDIJ:  VPU time    0.04: CPU time    0.04
    EDDAV :  VPU time 1112.12: CPU time 1112.31
    DOS   :  VPU time    0.00: CPU time   -0.00
    CHARGE:  VPU time    5.66: CPU time    5.66
    MIXING:  VPU time    0.03: CPU time    0.03
    ------------------------------------------
      LOOP:  VPU time 1118.58: CPU time 1118.79

 eigenvalue-minimisations  :  6112
 total energy-change (2. order) : 0.1939101E-02  (-0.2217512E-02)
 number of electron  613.9999875 magnetization 
 augmentation part   238.2136259 magnetization 

 Broyden mixing:
  rms(total) = 0.51416E-01    rms(broyden)= 0.51416E-01
  rms(prec ) = 0.68286E-01
  weight for this iteration     100.00

 eigenvalues of (default mixing * dielectric matrix)
  average eigenvalue GAMMA=   0.5513
  2.2910  1.4960  1.0401  0.7568  0.7568  0.2633  0.2249  0.0623  0.1810  0.1557
  0.1459  0.1395  0.1012  0.1037

 Free energy of the ion-electron system (eV)
  ---------------------------------------------------
  alpha Z        PSCENC =      1982.57798826
  Ewald energy   TEWEN  =    181798.54329552
  -1/2 Hartree   DENC   =   -225684.05259779
  -V(xc)+E(xc)   XCENC  =     -1063.54409873
  PAW double counting   =     36101.17524683   -33462.40364354
  entropy T*S    EENTRO =        -0.02246653
  eigenvalues    EBANDS =     -2004.71333043
  atomic energy  EATOM  =     41851.06754236
  ---------------------------------------------------
  free energy    TOTEN  =      -481.37206405 eV

  energy without entropy =     -481.34959751  energy(sigma->0) =     -481.36457520


--------------------------------------------------------------------------------------------------------




----------------------------------------- Iteration    1(  20)  ---------------------------------------


    POTLOK:  VPU time    0.72: CPU time    0.72
    SETDIJ:  VPU time    0.04: CPU time    0.04
    EDDAV :  VPU time 1098.29: CPU time 1098.48
    DOS   :  VPU time    0.00: CPU time   -0.00
    CHARGE:  VPU time    5.61: CPU time    5.61
    MIXING:  VPU time    0.04: CPU time    0.04
    ------------------------------------------
      LOOP:  VPU time 1104.73: CPU time 1104.91

 eigenvalue-minimisations  :  6016
 total energy-change (2. order) :-0.2459815E-02  (-0.1936438E-02)
 number of electron  613.9999875 magnetization 
 augmentation part   238.1894914 magnetization 

 Broyden mixing:
  rms(total) = 0.73973E-01    rms(broyden)= 0.73972E-01
  rms(prec ) = 0.10023E+00
  weight for this iteration     100.00

 eigenvalues of (default mixing * dielectric matrix)
  average eigenvalue GAMMA=   0.5527
  2.2451  1.7037  1.2800  0.7574  0.7574  0.2669  0.2420  0.0623  0.1788  0.1788
  0.1013  0.1034  0.1431  0.1431  0.1271

 Free energy of the ion-electron system (eV)
  ---------------------------------------------------
  alpha Z        PSCENC =      1982.57798826
  Ewald energy   TEWEN  =    181798.54329552
  -1/2 Hartree   DENC   =   -225696.49790963
  -V(xc)+E(xc)   XCENC  =     -1063.47383447
  PAW double counting   =     36103.12299003   -33464.25954021
  entropy T*S    EENTRO =        -0.02141139
  eigenvalues    EBANDS =     -1992.43364433
  atomic energy  EATOM  =     41851.06754236
  ---------------------------------------------------
  free energy    TOTEN  =      -481.37452386 eV

  energy without entropy =     -481.35311247  energy(sigma->0) =     -481.36738673


--------------------------------------------------------------------------------------------------------




----------------------------------------- Iteration    1(  21)  ---------------------------------------


    POTLOK:  VPU time    0.71: CPU time    0.71
    SETDIJ:  VPU time    0.04: CPU time    0.04
    EDDAV :  VPU time 1083.46: CPU time 1083.64
    DOS   :  VPU time   -0.00: CPU time   -0.00
    CHARGE:  VPU time    5.70: CPU time    5.70
    MIXING:  VPU time    0.03: CPU time    0.03
    ------------------------------------------
      LOOP:  VPU time 1089.96: CPU time 1090.33

 eigenvalue-minimisations  :  6032
 total energy-change (2. order) : 0.5014127E-02  (-0.1350026E-02)
 number of electron  613.9999875 magnetization 
 augmentation part   238.1772040 magnetization 

 Broyden mixing:
  rms(total) = 0.28670E-01    rms(broyden)= 0.28669E-01
  rms(prec ) = 0.38711E-01
  weight for this iteration     100.00

 eigenvalues of (default mixing * dielectric matrix)
  average eigenvalue GAMMA=   0.5543
  2.2775  1.8206  1.3505  0.7386  0.7386  0.4265  0.2773  0.2193  0.1895  0.0623
  0.1619  0.1427  0.1427  0.1012  0.1035  0.1167

 Free energy of the ion-electron system (eV)
  ---------------------------------------------------
  alpha Z        PSCENC =      1982.57798826
  Ewald energy   TEWEN  =    181798.54329552
  -1/2 Hartree   DENC   =   -225705.16042346
  -V(xc)+E(xc)   XCENC  =     -1063.42791151
  PAW double counting   =     36104.10125082   -33465.18483340
  entropy T*S    EENTRO =        -0.02142553
  eigenvalues    EBANDS =     -1983.86499281
  atomic energy  EATOM  =     41851.06754236
  ---------------------------------------------------
  free energy    TOTEN  =      -481.36950973 eV

  energy without entropy =     -481.34808420  energy(sigma->0) =     -481.36236789


--------------------------------------------------------------------------------------------------------




----------------------------------------- Iteration    1(  22)  ---------------------------------------


    POTLOK:  VPU time    0.72: CPU time    0.72
    SETDIJ:  VPU time    0.04: CPU time    0.04
    EDDAV :  VPU time 1056.40: CPU time 1056.58
    DOS   :  VPU time    0.00: CPU time   -0.00
    CHARGE:  VPU time    5.27: CPU time    5.27
    MIXING:  VPU time    0.03: CPU time    0.03
    ------------------------------------------
      LOOP:  VPU time 1062.48: CPU time 1062.94

 eigenvalue-minimisations  :  5872
 total energy-change (2. order) :-0.2324659E-03  (-0.5152932E-03)
 number of electron  613.9999875 magnetization 
 augmentation part   238.1741144 magnetization 

 Broyden mixing:
  rms(total) = 0.30377E-01    rms(broyden)= 0.30377E-01
  rms(prec ) = 0.39409E-01
  weight for this iteration     100.00

 eigenvalues of (default mixing * dielectric matrix)
  average eigenvalue GAMMA=   0.5858
  2.4398  2.0068  1.3898  0.8405  0.8405  0.7330  0.2775  0.2263  0.0623  0.2030
  0.1675  0.1675  0.1416  0.1416  0.1012  0.1035  0.1154

 Free energy of the ion-electron system (eV)
  ---------------------------------------------------
  alpha Z        PSCENC =      1982.57798826
  Ewald energy   TEWEN  =    181798.54329552
  -1/2 Hartree   DENC   =   -225711.51949673
  -V(xc)+E(xc)   XCENC  =     -1063.40279059
  PAW double counting   =     36105.31475985   -33466.42161113
  entropy T*S    EENTRO =        -0.02256859
  eigenvalues    EBANDS =     -1977.50686114
  atomic energy  EATOM  =     41851.06754236
  ---------------------------------------------------
  free energy    TOTEN  =      -481.36974220 eV

  energy without entropy =     -481.34717361  energy(sigma->0) =     -481.36221933


--------------------------------------------------------------------------------------------------------




----------------------------------------- Iteration    1(  23)  ---------------------------------------


    POTLOK:  VPU time    0.64: CPU time    0.64
    SETDIJ:  VPU time    0.04: CPU time    0.04
    EDDAV :  VPU time 1004.92: CPU time 1005.09
    DOS   :  VPU time   -0.00: CPU time   -0.00
    CHARGE:  VPU time    5.25: CPU time    5.25
    MIXING:  VPU time    0.03: CPU time    0.03
    ------------------------------------------
      LOOP:  VPU time 1010.92: CPU time 1011.09

 eigenvalue-minimisations  :  5712
 total energy-change (2. order) :-0.2289918E-04  (-0.3839091E-03)
 number of electron  613.9999875 magnetization 
 augmentation part   238.1757931 magnetization 

 Broyden mixing:
  rms(total) = 0.25626E-01    rms(broyden)= 0.25625E-01
  rms(prec ) = 0.32545E-01
  weight for this iteration     100.00

 eigenvalues of (default mixing * dielectric matrix)
  average eigenvalue GAMMA=   0.5865
  2.5658  2.0979  1.3903  0.9171  0.9171  0.7316  0.2827  0.2401  0.2401  0.0623
  0.1782  0.1782  0.1482  0.1482  0.1403  0.1012  0.1035  0.1148

 Free energy of the ion-electron system (eV)
  ---------------------------------------------------
  alpha Z        PSCENC =      1982.57798826
  Ewald energy   TEWEN  =    181798.54329552
  -1/2 Hartree   DENC   =   -225722.89094931
  -V(xc)+E(xc)   XCENC  =     -1063.36517904
  PAW double counting   =     36106.70845088   -33467.86907698
  entropy T*S    EENTRO =        -0.02244650
  eigenvalues    EBANDS =     -1966.11939029
  atomic energy  EATOM  =     41851.06754236
  ---------------------------------------------------
  free energy    TOTEN  =      -481.36976510 eV

  energy without entropy =     -481.34731860  energy(sigma->0) =     -481.36228293


--------------------------------------------------------------------------------------------------------




----------------------------------------- Iteration    1(  24)  ---------------------------------------


    POTLOK:  VPU time    0.64: CPU time    0.64
    SETDIJ:  VPU time    0.04: CPU time    0.04
    EDDAV :  VPU time 1053.29: CPU time 1053.47
    DOS   :  VPU time    0.00: CPU time   -0.00
    CHARGE:  VPU time    5.76: CPU time    5.76
    MIXING:  VPU time    0.04: CPU time    0.04
    ------------------------------------------
      LOOP:  VPU time 1059.79: CPU time 1059.97

 eigenvalue-minimisations  :  5664
 total energy-change (2. order) : 0.2730730E-03  (-0.2146973E-03)
 number of electron  613.9999875 magnetization 
 augmentation part   238.1805653 magnetization 

 Broyden mixing:
  rms(total) = 0.11618E-01    rms(broyden)= 0.11618E-01
  rms(prec ) = 0.16155E-01
  weight for this iteration     100.00

 eigenvalues of (default mixing * dielectric matrix)
  average eigenvalue GAMMA=   0.6089
  2.5979  2.3354  1.3473  1.0033  1.0033  0.6934  0.6934  0.2786  0.2362  0.2150
  0.0623  0.1827  0.1674  0.1502  0.1414  0.1414  0.1012  0.1035  0.1148

 Free energy of the ion-electron system (eV)
  ---------------------------------------------------
  alpha Z        PSCENC =      1982.57798826
  Ewald energy   TEWEN  =    181798.54329552
  -1/2 Hartree   DENC   =   -225728.41662860
  -V(xc)+E(xc)   XCENC  =     -1063.34797569
  PAW double counting   =     36106.11999884   -33467.28013518
  entropy T*S    EENTRO =        -0.02223135
  eigenvalues    EBANDS =     -1960.61134619
  atomic energy  EATOM  =     41851.06754236
  ---------------------------------------------------
  free energy    TOTEN  =      -481.36949203 eV

  energy without entropy =     -481.34726068  energy(sigma->0) =     -481.36208158


--------------------------------------------------------------------------------------------------------




----------------------------------------- Iteration    1(  25)  ---------------------------------------


    POTLOK:  VPU time    0.72: CPU time    0.73
    SETDIJ:  VPU time    0.04: CPU time    0.04
    EDDAV :  VPU time 1086.35: CPU time 1086.53
    DOS   :  VPU time    0.00: CPU time   -0.00
    CHARGE:  VPU time    5.46: CPU time    5.46
    MIXING:  VPU time    0.04: CPU time    0.04
    ------------------------------------------
      LOOP:  VPU time 1092.65: CPU time 1092.85

 eigenvalue-minimisations  :  5600
 total energy-change (2. order) :-0.1038032E-02  (-0.1739255E-03)
 number of electron  613.9999875 magnetization 
 augmentation part   238.1825432 magnetization 

 Broyden mixing:
  rms(total) = 0.18956E-01    rms(broyden)= 0.18956E-01
  rms(prec ) = 0.23581E-01
  weight for this iteration     100.00

 eigenvalues of (default mixing * dielectric matrix)
  average eigenvalue GAMMA=   0.6573
  2.9471  2.7687  1.4135  1.4135  0.8447  0.8447  0.8173  0.2792  0.2404  0.2317
  0.0623  0.1847  0.1847  0.1633  0.1478  0.1414  0.1414  0.1012  0.1035  0.1148

 Free energy of the ion-electron system (eV)
  ---------------------------------------------------
  alpha Z        PSCENC =      1982.57798826
  Ewald energy   TEWEN  =    181798.54329552
  -1/2 Hartree   DENC   =   -225735.45354222
  -V(xc)+E(xc)   XCENC  =     -1063.32607760
  PAW double counting   =     36102.38055709   -33463.46525662
  entropy T*S    EENTRO =        -0.02222880
  eigenvalues    EBANDS =     -1953.67280804
  atomic energy  EATOM  =     41851.06754236
  ---------------------------------------------------
  free energy    TOTEN  =      -481.37053006 eV

  energy without entropy =     -481.34830125  energy(sigma->0) =     -481.36312046


--------------------------------------------------------------------------------------------------------




----------------------------------------- Iteration    1(  26)  ---------------------------------------


    POTLOK:  VPU time    0.70: CPU time    0.70
[...]
 -0.000   0.000  -0.002   0.002  -0.001  -0.000   0.000  -0.002   0.000  -0.000  -0.001   0.001  -0.000  -0.004   0.000   0.000
 -0.000  -0.000  -0.001  -0.001   0.002   0.000  -0.000   0.000  -0.001   0.000   0.001  -0.000  -0.000   0.000  -0.006   0.000


------------------------ aborting loop because EDIFF is reached ----------------------------------------




--------------------------------------------------------------------------------------------------------


    CHARGE:  VPU time    6.46: CPU time    6.50
    FORLOC:  VPU time    0.20: CPU time    0.21
    FORNL :  VPU time  218.04: CPU time  219.54
    STRESS:  VPU time  784.07: CPU time  789.88
    FORCOR:  VPU time    0.75: CPU time    0.75
    FORHAR:  VPU time    0.32: CPU time    0.32
    MIXING:  VPU time    0.01: CPU time    0.01
 d Force = 0.5338560E-04[ 0.113E-04, 0.955E-04]  d Energy = 0.4202935E-04 0.114E-04
 d Force =-0.2907634E+00[-0.291E+00,-0.290E+00]  d Ewald  =-0.2907641E+00 0.710E-06


--------------------------------------------------------------------------------------------------------



  FREE ENERGIE OF THE ION-ELECTRON SYSTEM (eV)
  ---------------------------------------------------
  free  energy   TOTEN  =      -481.373876 eV

  energy  without entropy=     -481.351317  energy(sigma->0) =     -481.366357


  FORCE on cell =-STRESS in cart. coord.  units (eV/reduce length):
  Direction    X        Y        Z        XY       YZ       ZX
  --------------------------------------------------------------------------------------
  Alpha Z   1982.58   1982.58   1982.58
  Ewald   211457.57 212263.35-241922.88     -0.44      1.66    266.69
  Hartree 221543.11 222208.58-217988.73     -1.00      0.77    203.32
  E(xc)    -2904.93  -2905.72  -2915.29      0.04      0.01      0.45
  Local  -440791.28-442298.41 452028.70      1.93     -2.23   -480.51
  n-local  -1937.33  -1931.42  -2005.14      0.34      0.16     13.58
  augment   2937.25   2943.46   2987.93     -0.34     -0.10     -6.92
  Kinetic   7707.91   7737.77   7832.13     -0.49     -0.22      3.70
  -------------------------------------------------------------------------------------
  Total       -5.12      0.19     -0.71      0.03      0.03      0.30
  in kB       -3.39      0.13     -0.47      0.02      0.02      0.20
  external pressure =       -1.24 kB  Pullay stress =        0.00 kB


 VOLUME and BASIS-vectors are now :
 -----------------------------------------------------------------------------
  energy-cutoff  :      500.00
  volume of cell :     2421.32
      direct lattice vectors                 reciprocal lattice vectors
    13.178800017  0.000000000  0.000000000     0.075879443  0.000000000  0.000000000
     0.000000000  8.070400000  0.000000000     0.000000000  0.123909596  0.000000000
     0.000000000  0.000000000 22.765700003     0.000000000  0.000000000  0.043925730

  length of vectors
    13.178800017  8.070400000 22.765700003     0.075879443  0.123909596  0.043925730


 FORCES acting on ions
    electron-ion (+dipol)            ewald-force                    non-local-force                 convergence-correction
 -----------------------------------------------------------------------------------------------
   0.167E+02 -.386E+01 0.164E+04   -.172E+02 0.380E+01 -.164E+04   0.414E+00 0.467E-01 0.194E+00   0.163E+00 0.133E-01 -.363E-01
   0.226E+02 0.108E+01 0.159E+04   -.227E+02 -.110E+01 -.159E+04   0.259E+00 0.576E-02 0.443E-01   -.170E+00 0.157E-01 -.493E-01
   0.103E+02 0.647E+01 0.164E+04   -.108E+02 -.642E+01 -.164E+04   0.328E+00 -.323E-01 0.197E+00   0.158E+00 -.130E-01 -.318E-01
   0.257E+02 0.922E+02 0.148E+04   -.257E+02 -.930E+02 -.148E+04   0.143E+00 0.880E+00 -.304E+00   -.152E+00 -.233E-01 -.527E-01
   0.102E+02 -.274E+01 0.168E+04   -.107E+02 0.274E+01 -.168E+04   0.356E+00 -.439E-02 0.305E+00   0.158E+00 -.682E-03 -.331E-01
   0.266E+02 -.926E+02 0.147E+04   -.266E+02 0.935E+02 -.147E+04   0.165E+00 -.894E+00 -.299E+00   -.160E+00 0.850E-02 -.507E-01
   -.138E+01 0.252E+00 -.499E+03   0.124E+01 -.229E+00 0.499E+03   0.139E+00 -.387E-01 0.108E+00   0.700E-02 0.173E-01 -.421E-01
   0.266E+02 0.335E+01 -.517E+03   -.268E+02 -.340E+01 0.517E+03   0.163E+00 0.230E-01 0.712E-01   -.270E-01 0.242E-01 0.989E-01
   -.222E+01 0.127E+00 -.495E+03   0.210E+01 -.120E+00 0.495E+03   0.114E+00 0.135E-01 0.158E+00   0.603E-02 -.180E-01 -.346E-01
   0.253E+02 -.288E+01 -.513E+03   -.254E+02 0.292E+01 0.513E+03   0.179E+00 -.140E-01 0.578E-01   -.177E-01 -.259E-01 0.951E-01
   0.776E+00 -.299E+00 -.483E+03   -.949E+00 0.261E+00 0.483E+03   0.164E+00 0.370E-01 0.986E-01   0.904E-02 0.204E-03 -.412E-01
   0.203E+02 -.485E+00 -.519E+03   -.205E+02 0.490E+00 0.519E+03   0.176E+00 -.705E-02 0.461E-02   -.242E-01 0.259E-02 0.930E-01
   0.559E+02 0.711E+02 -.227E+04   -.578E+02 -.723E+02 0.227E+04   0.190E+01 0.122E+01 0.324E+01   -.722E-02 0.109E-01 0.237E-01
   -.118E+03 0.732E+01 -.231E+04   0.117E+03 -.720E+01 0.231E+04   0.679E+00 -.134E+00 0.277E+01   -.905E-02 0.147E-01 0.494E-03
   0.551E+02 -.714E+02 -.227E+04   -.570E+02 0.726E+02 0.227E+04   0.188E+01 -.120E+01 0.322E+01   -.538E-02 -.702E-02 0.236E-01
   -.123E+03 -.792E+01 -.231E+04   0.122E+03 0.780E+01 0.231E+04   0.825E+00 0.123E+00 0.284E+01   -.179E-01 -.522E-02 0.530E-02
   -.456E+02 -.206E-01 -.230E+04   0.449E+02 0.268E-01 0.230E+04   0.752E+00 -.879E-04 0.269E+01   -.261E-02 -.450E-02 0.401E-01
   -.111E+03 0.565E+00 -.232E+04   0.110E+03 -.559E+00 0.232E+04   0.844E+00 0.492E-02 0.287E+01   -.164E-01 -.966E-02 0.201E-01
   0.111E+03 -.556E+00 0.232E+04   -.110E+03 0.541E+00 -.232E+04   -.845E+00 -.354E-02 -.287E+01   0.714E-01 0.186E-01 0.133E-01
   0.457E+02 0.112E+00 0.230E+04   -.449E+02 -.136E+00 -.230E+04   -.752E+00 0.157E-02 -.269E+01   -.529E-01 0.221E-01 -.709E-01
   0.123E+03 0.796E+01 0.231E+04   -.122E+03 -.780E+01 -.231E+04   -.825E+00 -.122E+00 -.284E+01   0.598E-01 -.321E-01 0.139E-01
   -.550E+02 0.713E+02 0.227E+04   0.569E+02 -.724E+02 -.227E+04   -.188E+01 0.120E+01 -.322E+01   -.551E-01 -.114E-01 -.786E-01
   0.118E+03 -.735E+01 0.231E+04   -.117E+03 0.720E+01 -.231E+04   -.679E+00 0.135E+00 -.278E+01   0.572E-01 0.139E-01 0.139E-01
   -.558E+02 -.711E+02 0.227E+04   0.577E+02 0.723E+02 -.227E+04   -.190E+01 -.122E+01 -.324E+01   -.610E-01 -.871E-02 -.863E-01
   -.204E+02 0.473E+00 0.519E+03   0.205E+02 -.504E+00 -.519E+03   -.176E+00 0.826E-02 -.376E-02   0.897E-01 0.237E-01 0.401E-01
   -.696E+00 0.304E+00 0.483E+03   0.937E+00 -.277E+00 -.483E+03   -.163E+00 -.358E-01 -.983E-01   -.774E-01 0.121E-01 -.982E-01
   -.253E+02 0.293E+01 0.513E+03   0.254E+02 -.292E+01 -.513E+03   -.179E+00 0.154E-01 -.563E-01   0.881E-01 -.239E-01 0.409E-01
   0.231E+01 -.758E-01 0.495E+03   -.211E+01 0.110E+00 -.495E+03   -.114E+00 -.120E-01 -.158E+00   -.782E-01 -.236E-01 -.861E-01
   -.267E+02 -.337E+01 0.517E+03   0.268E+02 0.339E+01 -.517E+03   -.163E+00 -.217E-01 -.698E-01   0.974E-01 -.683E-03 0.351E-01
   0.146E+01 -.299E+00 0.500E+03   -.125E+01 0.246E+00 -.499E+03   -.139E+00 0.400E-01 -.107E+00   -.757E-01 0.121E-01 -.899E-01
   -.266E+02 0.925E+02 -.147E+04   0.267E+02 -.934E+02 0.147E+04   -.165E+00 0.895E+00 0.299E+00   0.221E-01 0.147E-01 0.977E-02
   -.103E+02 0.271E+01 -.168E+04   0.107E+02 -.274E+01 0.168E+04   -.356E+00 0.560E-02 -.304E+00   0.379E-03 0.226E-01 0.405E-01
   -.257E+02 -.922E+02 -.148E+04   0.258E+02 0.931E+02 0.148E+04   -.143E+00 -.879E+00 0.304E+00   0.244E-01 -.853E-02 0.142E-01
   -.105E+02 -.643E+01 -.164E+04   0.108E+02 0.642E+01 0.164E+04   -.328E+00 0.336E-01 -.196E+00   -.793E-02 -.283E-01 0.444E-01
   -.225E+02 -.102E+01 -.159E+04   0.227E+02 0.103E+01 0.159E+04   -.259E+00 -.411E-02 -.438E-01   0.263E-01 -.678E-02 0.273E-01
   -.168E+02 0.386E+01 -.164E+04   0.172E+02 -.382E+01 0.164E+04   -.414E+00 -.454E-01 -.194E+00   -.930E-02 0.611E-02 0.486E-01
   0.308E+02 0.140E+01 0.985E+03   -.310E+02 -.133E+01 -.985E+03   0.146E+00 -.604E-01 0.292E-01   0.559E-01 -.535E-02 -.941E-01
   0.396E+01 0.123E+02 0.958E+03   -.418E+01 -.123E+02 -.958E+03   0.272E+00 -.714E-01 0.128E+00   -.524E-01 0.200E-02 -.708E-03
   0.264E+02 -.507E+00 0.990E+03   -.266E+02 0.532E+00 -.990E+03   0.109E+00 -.110E-01 0.135E+00   0.416E-01 -.152E-01 -.830E-01
   -.779E+01 0.930E+00 0.945E+03   0.778E+01 -.925E+00 -.945E+03   0.632E-01 0.152E-01 -.687E-01   -.554E-01 -.210E-01 -.626E-02
   0.309E+02 -.105E+01 0.985E+03   -.311E+02 0.956E+00 -.985E+03   0.157E+00 0.738E-01 0.733E-01   0.535E-01 0.211E-01 -.920E-01
   0.601E+01 -.134E+02 0.958E+03   -.619E+01 0.133E+02 -.958E+03   0.247E+00 0.622E-01 0.131E+00   -.609E-01 0.185E-01 0.139E-02
   0.783E+01 -.901E+00 -.945E+03   -.780E+01 0.916E+00 0.945E+03   -.640E-01 -.139E-01 0.704E-01   0.338E-01 0.936E-03 0.816E-01
   -.264E+02 0.523E+00 -.990E+03   0.266E+02 -.533E+00 0.990E+03   -.108E+00 0.123E-01 -.134E+00   -.312E-01 -.144E-03 -.138E-01
   -.395E+01 -.123E+02 -.958E+03   0.418E+01 0.123E+02 0.958E+03   -.272E+00 0.729E-01 -.127E+00   0.398E-01 -.247E-01 0.867E-01
   -.309E+02 -.137E+01 -.985E+03   0.310E+02 0.134E+01 0.985E+03   -.145E+00 0.620E-01 -.292E-01   -.412E-01 -.213E-01 -.105E-01
   -.596E+01 0.134E+02 -.958E+03   0.617E+01 -.133E+02 0.958E+03   -.248E+00 -.610E-01 -.129E+00   0.386E-01 0.241E-01 0.844E-01
   -.310E+02 0.101E+01 -.985E+03   0.311E+02 -.959E+00 0.985E+03   -.156E+00 -.728E-01 -.732E-01   -.310E-01 0.207E-01 -.196E-01
   -.150E+03 0.146E+02 0.202E+04   0.150E+03 -.145E+02 -.202E+04   0.322E+00 -.928E-01 -.784E+00   0.848E-01 0.347E-02 -.510E-01
   -.629E+02 0.243E+02 0.199E+04   0.626E+02 -.244E+02 -.199E+04   0.438E+00 0.139E+00 -.894E+00   -.100E+00 -.158E-01 -.362E-01
   -.145E+03 0.550E+00 0.202E+04   0.145E+03 -.547E+00 -.202E+04   0.199E+00 0.162E-01 -.803E+00   0.926E-01 -.192E-01 -.507E-01
   0.590E+02 0.103E+01 0.200E+04   -.594E+02 -.101E+01 -.200E+04   0.530E+00 0.382E-03 0.349E+00   -.913E-01 -.151E-01 -.256E-01
   -.144E+03 -.150E+02 0.202E+04   0.143E+03 0.149E+02 -.202E+04   0.309E+00 0.790E-01 -.779E+00   0.964E-01 0.157E-01 -.527E-01
   -.629E+02 -.257E+02 0.199E+04   0.626E+02 0.258E+02 -.199E+04   0.421E+00 -.141E+00 -.911E+00   -.960E-01 0.326E-01 -.309E-01
   -.659E+01 0.561E+00 0.401E+02   0.654E+01 -.565E+00 -.401E+02   -.369E-01 0.270E-02 -.387E-02   0.876E-01 0.233E-02 -.289E-03
   0.110E+02 -.516E+00 -.357E+02   -.109E+02 0.534E+00 0.357E+02   -.246E-01 -.124E-01 0.354E-01   -.878E-01 -.588E-02 0.102E-01
   -.110E+02 0.533E+00 0.357E+02   0.109E+02 -.527E+00 -.357E+02   0.247E-01 0.133E-01 -.345E-01   0.917E-01 -.187E-01 -.507E-02
   0.659E+01 -.527E+00 -.402E+02   -.654E+01 0.546E+00 0.402E+02   0.370E-01 -.125E-02 0.475E-02   -.893E-01 -.176E-01 0.296E-02
   -.681E+01 -.111E+01 0.457E+02   0.674E+01 0.111E+01 -.457E+02   -.222E-01 -.157E-01 0.475E-03   0.922E-01 0.161E-01 -.740E-02
   0.680E+01 0.105E+01 -.457E+02   -.674E+01 -.109E+01 0.457E+02   0.222E-01 0.165E-01 0.601E-03   -.891E-01 0.241E-01 0.344E-02
   -.588E+02 -.104E+01 -.200E+04   0.594E+02 0.103E+01 0.200E+04   -.531E+00 0.849E-03 -.348E+00   -.755E-02 0.100E-01 -.480E-02
   0.145E+03 -.533E+00 -.202E+04   -.145E+03 0.552E+00 0.202E+04   -.199E+00 -.147E-01 0.804E+00   0.874E-03 -.278E-02 0.491E-01
   0.631E+02 -.243E+02 -.199E+04   -.626E+02 0.244E+02 0.199E+04   -.437E+00 -.138E+00 0.894E+00   -.126E-01 -.196E-01 0.120E-01
   0.150E+03 -.145E+02 -.202E+04   -.150E+03 0.145E+02 0.202E+04   -.322E+00 0.941E-01 0.785E+00   0.824E-02 -.207E-01 0.679E-01
   0.630E+02 0.256E+02 -.199E+04   -.626E+02 -.258E+02 0.199E+04   -.421E+00 0.142E+00 0.911E+00   -.136E-01 0.824E-02 0.446E-02
   0.144E+03 0.149E+02 -.202E+04   -.143E+03 -.149E+02 0.202E+04   -.309E+00 -.776E-01 0.780E+00   -.449E-04 0.229E-01 0.639E-01
   -.103E+03 0.469E+00 -.941E+03   0.111E+03 -.473E+00 0.934E+03   -.751E+01 0.270E-02 0.682E+01   0.281E-02 0.302E-02 0.157E-02
   0.103E+03 -.473E+00 0.941E+03   -.111E+03 0.480E+00 -.935E+03   0.750E+01 -.148E-02 -.682E+01   -.623E-01 -.621E-02 -.140E-01
   0.121E+02 -.101E+00 -.174E+04   -.334E+02 0.133E+00 0.178E+04   0.213E+02 -.354E-01 -.421E+02   0.539E-02 0.232E-02 -.493E-02
   -.119E+02 0.942E-01 0.174E+04   0.333E+02 -.120E+00 -.178E+04   -.213E+02 0.351E-01 0.421E+02   -.626E-01 -.796E-02 -.311E-01
 -----------------------------------------------------------------------------------------------
   0.111E+00 0.760E-02 0.302E+00   -.924E-13 -.382E-13 0.318E-11   0.340E-01 0.407E-01 -.204E-02   -.148E+00 -.731E-02 -.305E+00


 POSITION                                       TOTAL-FORCE (eV/Angst)
 -----------------------------------------------------------------------------------
      3.09936      0.83240      9.00464        -0.001209      0.000445     -0.001929
      9.67619      0.83503      9.00793        -0.001132     -0.000403      0.000751
      3.10076      3.53235      8.99009        -0.001311     -0.001398     -0.001884
      9.69819      3.49865      8.97116        -0.001257      0.002054     -0.004782
      3.09916      6.21546      8.91746         0.000487      0.001553      0.001806
      9.70234      6.24051      8.97631         0.000787     -0.002467     -0.005866
      5.29454      0.84347     12.16599         0.002077      0.001732     -0.001433
     11.89596      0.83471     12.16098         0.003827      0.000117     -0.000580
      5.29478      3.51857     12.15760         0.000645      0.001372     -0.000238
     11.88890      3.52389     12.14503         0.001709     -0.001378      0.001655
      5.29259      6.21522     12.13703        -0.000283     -0.002084     -0.002177
     11.88515      6.21536     12.14995         0.004255     -0.000069     -0.000541
      0.88605      0.79552     15.25530        -0.001912      0.000910     -0.002707
      7.48750      0.83197     15.20225         0.002725      0.000984      0.004165
      0.88218      3.55910     15.26412        -0.001660     -0.000849     -0.003428
      7.49314      3.52656     15.20536         0.001271     -0.000936      0.002094
      0.91314      6.21389     15.19157         0.002810      0.000984     -0.000390
      7.52271      6.21200     15.20763        -0.001120      0.000915      0.000057
      5.30675      0.83867      7.55813         0.002270     -0.001064      0.003182
     11.91624      0.83657      7.57415        -0.003326     -0.001012     -0.001082
      5.33637      3.52412      7.56034        -0.000417      0.000919      0.000400
     11.94738      3.49102      7.50164        -0.001102      0.002571      0.000935
      5.34200      6.21873      7.56345        -0.002121     -0.000978     -0.002128
     11.94346      6.25452      7.51055        -0.000728     -0.002614     -0.000519
      0.94437      0.83528     10.61572        -0.003723      0.000241      0.000957
      7.53693      0.83552     10.62869         0.000152      0.001988      0.000912
      0.94062      3.52675     10.62059        -0.001093      0.001282     -0.000544
      7.53473      3.53215     10.60805        -0.001092     -0.001511      0.000052
      0.93353      6.21592     10.60462        -0.003526     -0.000071      0.001854
      7.53493      6.20723     10.59973        -0.002297     -0.001417      0.001098
      3.12714      0.80967     13.78950        -0.000128      0.003219      0.004811
      9.73030      0.83526     13.84827        -0.000214     -0.001376     -0.001501
      3.13128      3.55150     13.79457         0.002205     -0.002666      0.003992
      9.72872      3.51835     13.77549         0.001455      0.001310      0.002224
      3.15325      6.21537     13.75771         0.001027      0.000377     -0.000673
      9.73013      6.21831     13.76107         0.001667     -0.000466      0.002505
      5.30308      2.18469      9.84558         0.001064     -0.000283     -0.000443
     11.88752      2.18510      9.84734        -0.001381      0.001568      0.000480
      5.30327      4.86754      9.83940         0.000436     -0.001312      0.002230
     11.90952      4.87294      9.83346        -0.000367     -0.001656     -0.000626
      5.30437      7.55998      9.84470         0.001954      0.000389      0.001146
     11.88838      7.55406      9.84054        -0.000580      0.000452      0.000522
      0.91999      2.17763     12.93219        -0.000043      0.001679      0.001657
      7.52616      2.18325     12.92633        -0.000379      0.001362     -0.003048
      0.94204      4.86546     12.91836         0.001037     -0.001539      0.000074
      7.52641      4.86608     12.92017        -0.000417      0.000618     -0.001107
      0.94110      7.56690     12.92509        -0.000041     -0.000387      0.000608
      7.52512      7.56122     12.92108        -0.001214     -0.000673     -0.002768
      0.88871      2.19393      8.27666        -0.000181     -0.000262      0.000912
      7.47119      2.15810      8.28175        -0.003336     -0.000895      0.007389
      0.93280      4.86468      8.26979        -0.001485     -0.000751     -0.004343
      7.54089      4.87314      8.10198        -0.005598     -0.001385      0.003631
      0.90015      7.55541      8.27903        -0.001335      0.000657     -0.001168
      7.47868      7.58430      8.27295        -0.002153      0.000750      0.003636
      3.11985      2.18321     11.36215         0.001992      0.000368      0.000511
      9.72374      2.16189     11.39793        -0.000339     -0.000462      0.000258
      3.10578      4.88862     11.36774         0.000284      0.000245     -0.000246
      9.70966      4.86741     11.40353        -0.002019     -0.000179     -0.000489
      3.11582      7.54116     11.34374         0.002991     -0.000268     -0.000215
      9.71365      7.57976     11.42191        -0.002985      0.000258     -0.000150
      5.28853      2.17733     14.66386         0.001540      0.001428     -0.002408
     11.89665      2.18586     14.49599         0.002440      0.000792      0.001415
      5.35825      4.89224     14.48391         0.001720      0.000042     -0.004984
     11.94079      4.85652     14.48902         0.001112      0.000260     -0.001927
      5.35086      7.53643     14.49272         0.000505      0.000182     -0.001263
     11.92920      7.56557     14.48663         0.002620     -0.000489     -0.000703
      3.36775      2.17970     15.31535         0.022329      0.000733     -0.020142
      9.46125      4.87034      7.45088         0.006872     -0.001018     -0.017536
      2.60966      2.18203     16.31947        -0.004103     -0.000909      0.033051
     10.21938      4.86800      6.44575        -0.020657      0.000473      0.004997
 -----------------------------------------------------------------------------------
    total drift:                               -0.002865      0.040998     -0.005125


--------------------------------------------------------------------------------------------------------


  FORCES: max atom, RMS     0.033317    0.007110
  FORCE total and by dimension    0.059489    0.033051


--------------------------------------------------------------------------------------------------------


  
 reached required accuracy - stopping structural energy minimisation
 writing wavefunctions
     LOOP+:  VPU time 5311.64: CPU time 5360.70
  
  
 General timing and accounting informations for this job:
 ========================================================
  
                  Total CPU time used (sec):    49406.767
                            User time (sec):    49280.605
                          System time (sec):      126.162
                         Elapsed time (sec):    49539.505
  
                   Maximum memory used (kb):           0.
                   Average memory used (kb):           0.
  
                          Minor page faults:     37449756
                          Major page faults:           19
                 Voluntary context switches:        16150
